  13  13   0   0
  0.5392766E+02  0.5727565E-09  0.5727565E-09  0.2467654E-08  0.5000000E-15
   1.0000000000000000E-004
  CAR 
 unknown system                          
      4.88710976    -11.93738243  301     -0.45001676      1.00000000
    -11.937  0.0000E+00  0.0000E+00
    -11.881  0.0000E+00  0.0000E+00
    -11.825  0.0000E+00  0.0000E+00
    -11.769 -0.4713E-30 -0.2643E-31
    -11.713 -0.3614E-26 -0.2027E-27
    -11.657 -0.1469E-22 -0.8243E-24
    -11.601 -0.3166E-19 -0.1776E-20
    -11.545 -0.3610E-16 -0.2026E-17
    -11.489 -0.2104E-13 -0.1182E-14
    -11.433 -0.6630E-11 -0.3730E-12
    -11.377 -0.1094E-08 -0.6175E-10
    -11.320 -0.9399E-07 -0.5333E-08
    -11.264 -0.4149E-05 -0.2380E-06
    -11.208 -0.9205E-04 -0.5401E-05
    -11.152 -0.9747E-03 -0.6006E-04
    -11.096 -0.4198E-02 -0.2955E-03
    -11.040 -0.9502E-03 -0.3488E-03
    -10.984  0.3884E-01  0.1829E-02
    -10.928  0.9282E-01  0.7035E-02
    -10.872  0.7701E-01  0.1135E-01
    -10.816  0.4464E-01  0.1386E-01
    -10.760  0.8035E-01  0.1836E-01
    -10.704  0.9062E-01  0.2345E-01
    -10.648  0.3421E-01  0.2536E-01
    -10.591 -0.5220E-02  0.2507E-01
    -10.535 -0.1387E-01  0.2429E-01
    -10.479  0.9360E-02  0.2482E-01
    -10.423  0.1120E+00  0.3110E-01
    -10.367  0.1977E+00  0.4219E-01
    -10.311  0.1306E+00  0.4951E-01
    -10.255  0.6395E-01  0.5310E-01
    -10.199  0.8840E-01  0.5806E-01
    -10.143  0.7140E-01  0.6206E-01
    -10.087  0.1365E-01  0.6283E-01
    -10.031 -0.1316E-01  0.6209E-01
     -9.975 -0.4992E-02  0.6181E-01
     -9.918  0.7602E-01  0.6607E-01
     -9.862  0.1907E+00  0.7677E-01
     -9.806  0.1641E+00  0.8597E-01
     -9.750  0.4199E-01  0.8833E-01
     -9.694 -0.1424E-01  0.8753E-01
     -9.638 -0.1390E-01  0.8675E-01
     -9.582  0.3679E-01  0.8881E-01
     -9.526  0.1481E+00  0.9712E-01
     -9.470  0.1881E+00  0.1077E+00
     -9.414  0.1258E+00  0.1147E+00
     -9.358  0.9530E-01  0.1201E+00
     -9.302  0.5873E-01  0.1234E+00
     -9.245  0.1255E-01  0.1241E+00
     -9.189  0.1171E+00  0.1306E+00
     -9.133  0.3469E+00  0.1501E+00
     -9.077  0.4396E+00  0.1747E+00
     -9.021  0.3190E+00  0.1926E+00
     -8.965  0.1331E+00  0.2001E+00
     -8.909  0.1553E-01  0.2010E+00
     -8.853 -0.1159E-01  0.2003E+00
     -8.797 -0.7757E-02  0.1999E+00
     -8.741 -0.1083E-01  0.1993E+00
     -8.685 -0.3479E-02  0.1991E+00
     -8.629  0.8535E-01  0.2039E+00
     -8.572  0.2696E+00  0.2190E+00
     -8.516  0.3521E+00  0.2387E+00
     -8.460  0.1986E+00  0.2499E+00
     -8.404  0.2540E-01  0.2513E+00
     -8.348 -0.1924E-01  0.2502E+00
     -8.292 -0.1918E-01  0.2491E+00
     -8.236 -0.1535E-02  0.2490E+00
     -8.180  0.1247E+00  0.2560E+00
     -8.124  0.2906E+00  0.2723E+00
     -8.068  0.2371E+00  0.2856E+00
     -8.012  0.5685E-01  0.2888E+00
     -7.956 -0.1395E-01  0.2880E+00
     -7.900 -0.9794E-02  0.2875E+00
     -7.843 -0.8700E-02  0.2870E+00
     -7.787 -0.6067E-02  0.2867E+00
     -7.731  0.5906E-01  0.2900E+00
     -7.675  0.1648E+00  0.2992E+00
     -7.619  0.1522E+00  0.3078E+00
     -7.563  0.1631E+00  0.3169E+00
     -7.507  0.4625E+00  0.3428E+00
     -7.451  0.7028E+00  0.3823E+00
     -7.395  0.4775E+00  0.4090E+00
     -7.339  0.1087E+00  0.4151E+00
     -7.283 -0.2681E-01  0.4136E+00
     -7.227 -0.2133E-01  0.4124E+00
     -7.170 -0.1534E-01  0.4116E+00
     -7.114  0.9446E-02  0.4121E+00
     -7.058  0.1282E+00  0.4193E+00
     -7.002  0.2816E+00  0.4351E+00
     -6.946  0.3004E+00  0.4519E+00
     -6.890  0.1774E+00  0.4619E+00
     -6.834  0.9052E-01  0.4670E+00
     -6.778  0.8556E-01  0.4718E+00
     -6.722  0.5128E-01  0.4746E+00
     -6.666  0.3365E-01  0.4765E+00
     -6.610  0.7130E-01  0.4805E+00
     -6.554  0.9395E-01  0.4858E+00
     -6.497  0.1864E+00  0.4962E+00
     -6.441  0.3405E+00  0.5153E+00
     -6.385  0.2974E+00  0.5320E+00
     -6.329  0.1636E+00  0.5412E+00
     -6.273  0.2105E+00  0.5530E+00
     -6.217  0.2559E+00  0.5673E+00
     -6.161  0.1357E+00  0.5750E+00
     -6.105  0.1585E-01  0.5758E+00
     -6.049 -0.1630E-01  0.5749E+00
     -5.993 -0.1614E-01  0.5740E+00
     -5.937  0.1934E-01  0.5751E+00
     -5.881  0.1323E+00  0.5825E+00
     -5.824  0.3038E+00  0.5996E+00
     -5.768  0.5037E+00  0.6278E+00
     -5.712  0.5386E+00  0.6580E+00
     -5.656  0.2885E+00  0.6742E+00
     -5.600  0.4516E-01  0.6767E+00
     -5.544 -0.2387E-01  0.6754E+00
     -5.488 -0.2533E-01  0.6740E+00
     -5.432 -0.9559E-03  0.6739E+00
     -5.376  0.1385E+00  0.6817E+00
     -5.320  0.3449E+00  0.7010E+00
     -5.264  0.4281E+00  0.7250E+00
     -5.208  0.3866E+00  0.7467E+00
     -5.152  0.2327E+00  0.7598E+00
     -5.095  0.6367E-01  0.7633E+00
     -5.039  0.8677E-01  0.7682E+00
     -4.983  0.2184E+00  0.7805E+00
     -4.927  0.2685E+00  0.7955E+00
     -4.871  0.2601E+00  0.8101E+00
     -4.815  0.2472E+00  0.8240E+00
     -4.759  0.1733E+00  0.8337E+00
     -4.703  0.5692E-01  0.8369E+00
     -4.647  0.1117E+00  0.8431E+00
     -4.591  0.3236E+00  0.8613E+00
     -4.535  0.3395E+00  0.8803E+00
     -4.479  0.1517E+00  0.8888E+00
     -4.422  0.6827E-01  0.8927E+00
     -4.366  0.1017E+00  0.8984E+00
     -4.310  0.1830E+00  0.9086E+00
     -4.254  0.2563E+00  0.9230E+00
     -4.198  0.2108E+00  0.9348E+00
     -4.142  0.1668E+00  0.9442E+00
     -4.086  0.2134E+00  0.9562E+00
     -4.030  0.2502E+00  0.9702E+00
     -3.974  0.2109E+00  0.9820E+00
     -3.918  0.1006E+00  0.9877E+00
     -3.862  0.7370E-01  0.9918E+00
     -3.806  0.1695E+00  0.1001E+01
     -3.749  0.2403E+00  0.1015E+01
     -3.693  0.2576E+00  0.1029E+01
     -3.637  0.3418E+00  0.1048E+01
     -3.581  0.3914E+00  0.1070E+01
     -3.525  0.2952E+00  0.1087E+01
     -3.469  0.3068E+00  0.1104E+01
     -3.413  0.3803E+00  0.1125E+01
     -3.357  0.2166E+00  0.1138E+01
     -3.301  0.1622E-01  0.1138E+01
     -3.245 -0.2098E-01  0.1137E+01
     -3.189  0.3787E-01  0.1139E+01
     -3.133  0.1662E+00  0.1149E+01
     -3.076  0.3813E+00  0.1170E+01
     -3.020  0.4826E+00  0.1197E+01
     -2.964  0.3174E+00  0.1215E+01
     -2.908  0.1676E+00  0.1224E+01
     -2.852  0.1842E+00  0.1235E+01
     -2.796  0.1790E+00  0.1245E+01
     -2.740  0.1069E+00  0.1251E+01
     -2.684  0.1805E+00  0.1261E+01
     -2.628  0.3727E+00  0.1282E+01
     -2.572  0.4811E+00  0.1309E+01
     -2.516  0.4581E+00  0.1334E+01
     -2.460  0.3796E+00  0.1356E+01
     -2.404  0.3305E+00  0.1374E+01
     -2.347  0.2796E+00  0.1390E+01
     -2.291  0.2285E+00  0.1403E+01
     -2.235  0.1609E+00  0.1412E+01
     -2.179  0.9871E-01  0.1417E+01
     -2.123  0.8472E-01  0.1422E+01
     -2.067  0.1077E+00  0.1428E+01
     -2.011  0.1775E+00  0.1438E+01
     -1.955  0.1961E+00  0.1449E+01
     -1.899  0.2065E+00  0.1461E+01
     -1.843  0.2333E+00  0.1474E+01
     -1.787  0.1800E+00  0.1484E+01
     -1.731  0.1597E+00  0.1493E+01
     -1.674  0.2257E+00  0.1505E+01
     -1.618  0.2332E+00  0.1519E+01
     -1.562  0.2630E+00  0.1533E+01
     -1.506  0.3973E+00  0.1556E+01
     -1.450  0.4135E+00  0.1579E+01
     -1.394  0.3409E+00  0.1598E+01
     -1.338  0.2988E+00  0.1615E+01
     -1.282  0.1941E+00  0.1626E+01
     -1.226  0.1848E+00  0.1636E+01
     -1.170  0.2601E+00  0.1650E+01
     -1.114  0.1684E+00  0.1660E+01
     -1.058  0.1019E+00  0.1666E+01
     -1.001  0.2873E+00  0.1682E+01
     -0.945  0.3960E+00  0.1704E+01
     -0.889  0.2349E+00  0.1717E+01
     -0.833  0.9494E-01  0.1722E+01
     -0.777  0.1762E+00  0.1732E+01
     -0.721  0.4126E+00  0.1755E+01
     -0.665  0.4904E+00  0.1783E+01
     -0.609  0.3752E+00  0.1804E+01
     -0.553  0.3109E+00  0.1821E+01
     -0.497  0.2998E+00  0.1838E+01
     -0.441  0.2474E+00  0.1852E+01
     -0.385  0.2127E+00  0.1864E+01
     -0.328  0.1444E+00  0.1872E+01
     -0.272  0.6274E-01  0.1876E+01
     -0.216  0.1631E+00  0.1885E+01
     -0.160  0.3096E+00  0.1902E+01
     -0.104  0.3091E+00  0.1920E+01
     -0.048  0.3054E+00  0.1937E+01
      0.008  0.3289E+00  0.1955E+01
      0.064  0.3176E+00  0.1973E+01
      0.120  0.3203E+00  0.1991E+01
      0.176  0.3526E+00  0.2011E+01
      0.232  0.3508E+00  0.2030E+01
      0.288  0.2522E+00  0.2044E+01
      0.344  0.1495E+00  0.2053E+01
      0.401  0.2019E+00  0.2064E+01
      0.457  0.3345E+00  0.2083E+01
      0.513  0.4142E+00  0.2106E+01
      0.569  0.3892E+00  0.2128E+01
      0.625  0.3352E+00  0.2147E+01
      0.681  0.3431E+00  0.2166E+01
      0.737  0.3306E+00  0.2185E+01
      0.793  0.2786E+00  0.2200E+01
      0.849  0.3672E+00  0.2221E+01
      0.905  0.4998E+00  0.2249E+01
      0.961  0.4659E+00  0.2275E+01
      1.017  0.3787E+00  0.2296E+01
      1.074  0.3154E+00  0.2314E+01
      1.130  0.2691E+00  0.2329E+01
      1.186  0.2437E+00  0.2343E+01
      1.242  0.1807E+00  0.2353E+01
      1.298  0.1035E+00  0.2359E+01
      1.354  0.1245E+00  0.2366E+01
      1.410  0.3157E+00  0.2383E+01
      1.466  0.4691E+00  0.2410E+01
      1.522  0.3939E+00  0.2432E+01
      1.578  0.2738E+00  0.2447E+01
      1.634  0.3147E+00  0.2465E+01
      1.690  0.5130E+00  0.2493E+01
      1.747  0.5921E+00  0.2527E+01
      1.803  0.3778E+00  0.2548E+01
      1.859  0.2383E+00  0.2561E+01
      1.915  0.3278E+00  0.2580E+01
      1.971  0.2814E+00  0.2595E+01
      2.027  0.8592E-01  0.2600E+01
      2.083  0.3518E-01  0.2602E+01
      2.139  0.1562E+00  0.2611E+01
      2.195  0.2745E+00  0.2626E+01
      2.251  0.3553E+00  0.2646E+01
      2.307  0.3590E+00  0.2666E+01
      2.363  0.2869E+00  0.2682E+01
      2.420  0.3411E+00  0.2702E+01
      2.476  0.5395E+00  0.2732E+01
      2.532  0.7175E+00  0.2772E+01
      2.588  0.7695E+00  0.2815E+01
      2.644  0.7117E+00  0.2855E+01
      2.700  0.5266E+00  0.2885E+01
      2.756  0.2892E+00  0.2901E+01
      2.812  0.1221E+00  0.2908E+01
      2.868  0.5844E-01  0.2911E+01
      2.924  0.2058E+00  0.2923E+01
      2.980  0.5228E+00  0.2952E+01
      3.036  0.6332E+00  0.2987E+01
      3.092  0.4941E+00  0.3015E+01
      3.149  0.3238E+00  0.3033E+01
      3.205  0.1642E+00  0.3042E+01
      3.261  0.1087E+00  0.3049E+01
      3.317  0.2719E+00  0.3064E+01
      3.373  0.5627E+00  0.3095E+01
      3.429  0.6173E+00  0.3130E+01
      3.485  0.3371E+00  0.3149E+01
      3.541  0.1305E+00  0.3156E+01
      3.597  0.1571E+00  0.3165E+01
      3.653  0.1566E+00  0.3174E+01
      3.709  0.1072E+00  0.3180E+01
      3.765  0.8819E-01  0.3185E+01
      3.822  0.6621E-01  0.3188E+01
      3.878  0.8302E-01  0.3193E+01
      3.934  0.9112E-01  0.3198E+01
      3.990  0.3801E-01  0.3200E+01
      4.046 -0.1059E-02  0.3200E+01
      4.102 -0.4204E-02  0.3200E+01
      4.158 -0.9749E-03  0.3200E+01
      4.214 -0.9206E-04  0.3200E+01
      4.270 -0.4149E-05  0.3200E+01
      4.326 -0.9399E-07  0.3200E+01
      4.382 -0.1094E-08  0.3200E+01
      4.438 -0.6630E-11  0.3200E+01
      4.495 -0.2103E-13  0.3200E+01
      4.551 -0.4949E-16  0.3200E+01
      4.607  0.0000E+00  0.3200E+01
      4.663  0.0000E+00  0.3200E+01
      4.719  0.0000E+00  0.3200E+01
      4.775  0.0000E+00  0.3200E+01
      4.831  0.0000E+00  0.3200E+01
      4.887  0.0000E+00  0.3200E+01
