   13   13   20    1
  0.5392766E+02  0.5727565E-09  0.5727565E-09  0.2467654E-08  0.5000000E-15
   1.0000000000000000E-004
  CAR 
 unknown system                          
     37      6     32
 
  0.1250000E+00  0.1250000E+00  0.1262379E-14  0.1250000E+00
    1      -10.937382   1.000000
    2       -9.527803   1.000000
    3       -7.454412   1.000000
    4       -6.432335   1.000000
    5       -5.855498   1.000000
    6       -5.698648   1.000000
    7       -5.283618   1.000000
    8       -4.602034   1.000000
    9       -4.283764   1.000000
   10       -4.232175   1.000000
   11       -4.125169   1.000000
   12       -3.842442   1.000000
   13       -3.578905   1.000000
   14       -3.046627   1.000000
   15       -2.620163   1.000000
   16       -2.417185   1.000000
   17       -1.812221   1.000000
   18       -1.630627   1.000000
   19       -1.462870   1.000000
   20       -0.519959   0.959672
   21       -0.098058  -0.000004
   22       -0.044059  -0.000000
   23        0.464491  -0.000000
   24        0.610315  -0.000000
   25        1.267910  -0.000000
   26        1.459231  -0.000000
   27        2.422170   0.000000
   28        2.535571   0.000000
   29        2.798369   0.000000
   30        3.213513   0.000000
   31        3.382536   0.000000
   32        3.887110   0.000000
 
  0.3750000E+00  0.1250000E+00  0.1262379E-14  0.2500000E+00
    1      -10.391586   1.000000
    2       -9.078102   1.000000
    3       -8.137608   1.000000
    4       -7.500159   1.000000
    5       -7.033542   1.000000
    6       -6.275782   1.000000
    7       -5.776585   1.000000
    8       -5.204814   1.000000
    9       -4.597214   1.000000
   10       -3.765058   1.000000
   11       -3.659243   1.000000
   12       -3.435590   1.000000
   13       -3.061348   1.000000
   14       -2.300298   1.000000
   15       -1.694275   1.000000
   16       -1.361885   1.000000
   17       -0.987440   1.000000
   18       -0.711463   1.000684
   19       -0.387973   0.071025
   20        0.029155  -0.000000
   21        0.112205  -0.000000
   22        0.395022  -0.000000
   23        0.674505  -0.000000
   24        0.852030  -0.000000
   25        1.692967  -0.000000
   26        2.141881  -0.000000
   27        2.268688   0.000000
   28        2.574772   0.000000
   29        2.706237   0.000000
   30        2.964154   0.000000
   31        3.021884   0.000000
   32        3.328665   0.000000
 
 -0.3750000E+00  0.1250000E+00  0.1262379E-14  0.2500000E+00
    1       -9.870742   1.000000
    2       -9.142987   1.000000
    3       -8.533484   1.000000
    4       -7.676885   1.000000
    5       -7.445937   1.000000
    6       -6.472794   1.000000
    7       -5.739480   1.000000
    8       -5.344978   1.000000
    9       -5.006430   1.000000
   10       -4.008082   1.000000
   11       -3.597885   1.000000
   12       -2.838208   1.000000
   13       -2.529338   1.000000
   14       -2.016721   1.000000
   15       -1.520490   1.000000
   16       -1.180702   1.000000
   17       -0.744942   1.000124
   18       -0.620634   1.018279
   19       -0.187970  -0.000665
   20        0.520323  -0.000000
   21        0.737726  -0.000000
   22        0.959989  -0.000000
   23        1.031230  -0.000000
   24        1.165466  -0.000000
   25        1.633807  -0.000000
   26        1.734230  -0.000000
   27        1.882217  -0.000000
   28        2.478174   0.000000
   29        2.645627   0.000000
   30        2.992313   0.000000
   31        3.104068   0.000000
   32        3.400843   0.000000
 
 -0.1250000E+00  0.1250000E+00  0.1262379E-14  0.1250000E+00
    1      -10.754195   1.000000
    2       -9.366207   1.000000
    3       -7.525677   1.000000
    4       -6.949712   1.000000
    5       -6.806110   1.000000
    6       -5.765522   1.000000
    7       -5.322787   1.000000
    8       -4.895830   1.000000
    9       -4.795306   1.000000
   10       -4.296097   1.000000
   11       -3.444256   1.000000
   12       -3.164768   1.000000
   13       -3.020809   1.000000
   14       -2.937978   1.000000
   15       -2.592713   1.000000
   16       -2.403590   1.000000
   17       -1.370604   1.000000
   18       -0.979016   1.000000
   19       -0.875022   1.000000
   20       -0.543616   1.017146
   21       -0.189813  -0.000725
   22        0.186318  -0.000000
   23        0.259087  -0.000000
   24        1.087571  -0.000000
   25        1.550411  -0.000000
   26        1.942192  -0.000000
   27        2.280958   0.000000
   28        2.510184   0.000000
   29        2.610411   0.000000
   30        3.346939   0.000000
   31        3.434191   0.000000
   32        3.571844   0.000000
 
  0.3750000E+00  0.3750000E+00  0.1262379E-14  0.1250000E+00
    1      -10.213738   1.000000
    2       -9.020360   1.000000
    3       -8.555094   1.000000
    4       -7.456034   1.000000
    5       -6.612506   1.000000
    6       -6.420318   1.000000
    7       -6.222374   1.000000
    8       -5.234804   1.000000
    9       -4.820893   1.000000
   10       -4.552738   1.000000
   11       -3.461886   1.000000
   12       -2.599939   1.000000
   13       -2.518750   1.000000
   14       -2.161594   1.000000
   15       -1.889133   1.000000
   16       -1.541184   1.000000
   17       -0.690700   1.001738
   18       -0.495330   0.843280
   19       -0.050095  -0.000000
   20        0.180547  -0.000000
   21        0.484765  -0.000000
   22        0.584281  -0.000000
   23        0.866384  -0.000000
   24        0.916296  -0.000000
   25        1.443404  -0.000000
   26        1.717367  -0.000000
   27        1.914257  -0.000000
   28        2.219870   0.000000
   29        2.492609   0.000000
   30        2.591453   0.000000
   31        3.108051   0.000000
   32        3.729427   0.000000
 
 -0.3750000E+00  0.3750000E+00  0.1262379E-14  0.1250000E+00
    1       -9.498309   1.000000
    2       -9.153793   1.000000
    3       -8.606590   1.000000
    4       -8.130496   1.000000
    5       -7.501749   1.000000
    6       -6.963166   1.000000
    7       -5.877685   1.000000
    8       -4.924898   1.000000
    9       -4.411675   1.000000
   10       -4.099536   1.000000
   11       -3.080238   1.000000
   12       -2.680212   1.000000
   13       -2.668627   1.000000
   14       -2.435235   1.000000
   15       -1.884689   1.000000
   16       -1.481136   1.000000
   17       -1.221303   1.000000
   18       -0.996943   1.000000
   19        0.247003  -0.000000
   20        0.874347  -0.000000
   21        1.391800  -0.000000
   22        1.409491  -0.000000
   23        1.452433  -0.000000
   24        1.529703  -0.000000
   25        1.755711  -0.000000
   26        2.372230   0.000000
   27        2.401160   0.000000
   28        2.514962   0.000000
   29        2.633124   0.000000
   30        2.939742   0.000000
   31        3.413049   0.000000
   32        3.600994   0.000000
