       N       E                     dE             d eps       ncg     rms          rms(c)
DAV:   1     0.987934502762E+02    0.98793E+02   -0.80845E+03   384   0.513E+02
DAV:   2    -0.398071612451E+02   -0.13860E+03   -0.13304E+03   536   0.122E+02
DAV:   3    -0.465252723963E+02   -0.67181E+01   -0.65631E+01   480   0.278E+01
DAV:   4    -0.468004390102E+02   -0.27517E+00   -0.27483E+00   600   0.669E+00
DAV:   5    -0.468104654173E+02   -0.10026E-01   -0.10025E-01   640   0.119E+00    0.543E+00
DAV:   6    -0.105268466644E+04   -0.10059E+04   -0.70920E+03   536   0.471E+02    0.380E+01
DAV:   7    -0.658117423032E+02    0.98687E+03   -0.49075E+02   488   0.762E+01    0.496E+01
DAV:   8    -0.399921783221E+02    0.25820E+02   -0.27745E+02   616   0.437E+01    0.105E+01
DAV:   9    -0.114969972236E+05   -0.11457E+05   -0.12047E+05   616   0.219E+03    0.858E+01
DAV:  10    -0.102729747773E+03    0.11394E+05   -0.87096E+03   768   0.132E+02    0.228E+01
DAV:  11    -0.474560481245E+03   -0.37183E+03   -0.43821E+03   664   0.243E+02    0.286E+01
DAV:  12    -0.436163723488E+03    0.38397E+02   -0.45330E+03   760   0.185E+02    0.383E+01
DAV:  13    -0.108318393250E+03    0.32785E+03   -0.28143E+03   752   0.109E+02    0.205E+01
DAV:  14    -0.121249908185E+04   -0.11042E+04   -0.93073E+03   712   0.475E+02    0.458E+01
DAV:  15    -0.986586387586E+02    0.11138E+04   -0.27903E+03   736   0.119E+02    0.220E+01
DAV:  16    -0.389843216656E+02    0.59674E+02   -0.47817E+02   608   0.654E+01    0.495E+00
DAV:  17    -0.462107610490E+02   -0.72264E+01   -0.67651E+01   512   0.232E+01    0.368E+00
DAV:  18    -0.466311467693E+02   -0.42039E+00   -0.25656E+00   568   0.608E+00    0.353E+00
DAV:  19    -0.466658747950E+02   -0.34728E-01   -0.15004E-01   608   0.145E+00    0.340E+00
DAV:  20    -0.186440128922E+03   -0.13977E+03   -0.13127E+02   488   0.521E+01    0.181E+01
DAV:  21    -0.485060742337E+02    0.13793E+03   -0.15439E+02   456   0.291E+01    0.516E+00
DAV:  22    -0.461122292918E+02    0.23938E+01   -0.15726E+01   472   0.130E+01    0.319E+00
DAV:  23    -0.462060760043E+02   -0.93847E-01   -0.18973E+00   528   0.479E+00    0.292E+00
DAV:  24    -0.146736502341E+04   -0.14212E+04   -0.93582E+03   512   0.569E+02    0.395E+01
DAV:  25    -0.420637891901E+02    0.14253E+04   -0.71788E+02   616   0.723E+01    0.256E+01
DAV:  26    -0.457199665189E+02   -0.36562E+01   -0.12695E+02   512   0.350E+01    0.543E+00
DAV:  27    -0.116216146813E+05   -0.11576E+05   -0.12561E+05   624   0.207E+03    0.113E+02
DAV:  28    -0.240669734632E+02    0.11598E+05   -0.57802E+03   768   0.114E+02    0.166E+01
DAV:  29    -0.454629233401E+02   -0.21396E+02   -0.36067E+02   472   0.576E+01    0.439E+00
DAV:  30    -0.477798646102E+02   -0.23169E+01   -0.20825E+01   552   0.155E+01    0.424E+00
DAV:  31    -0.480784141059E+02   -0.29855E+00   -0.70253E-01   632   0.318E+00    0.440E+00
DAV:  32    -0.481949610223E+02   -0.11655E+00   -0.30315E-02   648   0.622E-01    0.453E+00
DAV:  33    -0.482372606315E+02   -0.42300E-01   -0.26358E-03   632   0.199E-01    0.456E+00
DAV:  34    -0.482662586091E+02   -0.28998E-01   -0.37429E-04   496   0.788E-02    0.457E+00
DAV:  35    -0.735645860876E+04   -0.73082E+04   -0.57782E+04   504   0.260E+03    0.761E+01
DAV:  36    -0.340644771301E+02    0.73224E+04   -0.15037E+03   632   0.102E+02    0.385E+01
DAV:  37    -0.100581496721E+04   -0.97175E+03   -0.76152E+03   520   0.724E+02    0.356E+01
DAV:  38    -0.133954948404E+03    0.87186E+03   -0.14426E+03   640   0.116E+02    0.210E+01
DAV:  39    -0.193485960925E+03   -0.59531E+02   -0.18057E+03   760   0.122E+02    0.300E+01
DAV:  40    -0.364585860657E+03   -0.17110E+03   -0.37801E+03   744   0.169E+02    0.552E+01
DAV:  41    -0.766795922673E+02    0.28791E+03   -0.21422E+03   728   0.109E+02    0.277E+01
DAV:  42    -0.369619553970E+03   -0.29294E+03   -0.33371E+03   728   0.195E+02    0.466E+01
DAV:  43    -0.836220624054E+02    0.28600E+03   -0.21802E+03   728   0.104E+02    0.275E+01
DAV:  44    -0.367195609064E+03   -0.28357E+03   -0.34343E+03   752   0.192E+02    0.535E+01
DAV:  45    -0.799530073595E+02    0.28724E+03   -0.22841E+03   760   0.106E+02    0.327E+01
DAV:  46    -0.361032948683E+03   -0.28108E+03   -0.35982E+03   736   0.197E+02    0.496E+01
DAV:  47    -0.199993667909E+03    0.16104E+03   -0.23118E+03   768   0.126E+02    0.372E+01
DAV:  48    -0.209369628220E+03   -0.93760E+01   -0.22334E+03   760   0.130E+02    0.408E+01
DAV:  49    -0.446039289514E+02    0.16477E+03   -0.54374E+02   576   0.674E+01    0.126E+01
DAV:  50    -0.334977162135E+04   -0.33052E+04   -0.33901E+04   456   0.226E+03    0.360E+01
DAV:  51    -0.614280788766E+02    0.32883E+04   -0.10422E+03   488   0.960E+01    0.121E+01
DAV:  52    -0.506868080643E+02    0.10741E+02   -0.59164E+01   496   0.245E+01    0.666E+00
DAV:  53    -0.519821107272E+02   -0.12953E+01   -0.73120E+00   488   0.920E+00    0.645E+00
DAV:  54    -0.518998678637E+02    0.82243E-01   -0.33175E-01   600   0.230E+00    0.638E+00
DAV:  55    -0.521918162260E+02   -0.29195E+00   -0.64148E-02   528   0.114E+00    0.652E+00
DAV:  56    -0.529702244122E+02   -0.77841E+00   -0.35115E-01   464   0.251E+00    0.697E+00
DAV:  57    -0.531747402126E+02   -0.20452E+00   -0.60725E-02   544   0.920E-01    0.707E+00
DAV:  58    -0.540516059961E+02   -0.87687E+00   -0.50299E-02   520   0.966E-01    0.741E+00
DAV:  59    -0.544881707285E+02   -0.43656E+00   -0.26342E-02   520   0.605E-01    0.756E+00
DAV:  60    -0.548724229322E+02   -0.38425E+00   -0.17284E-02   456   0.490E-01
   1 F= -.54872423E+02 E0= -.54873727E+02  d E =-.548724E+02
       N       E                     dE             d eps       ncg     rms          rms(c)
DAV:   1    -0.543326888033E+02    0.15548E+00   -0.56389E-01   400   0.277E+00    0.745E+00
DAV:   2    -0.680730068389E+02   -0.13740E+02   -0.10847E+02   712   0.460E+01    0.111E+01
DAV:   3    -0.432775559356E+02    0.24795E+02   -0.11451E+02   576   0.350E+01    0.241E+00
DAV:   4    -0.449050902672E+02   -0.16275E+01   -0.17537E+01   488   0.115E+01    0.132E+00
DAV:   5    -0.448544161944E+02    0.50674E-01   -0.74292E-01   560   0.348E+00    0.799E-01
DAV:   6    -0.448378233006E+02    0.16593E-01   -0.92697E-02   528   0.120E+00    0.604E-01
DAV:   7    -0.448338308223E+02    0.39925E-02   -0.14954E-02   520   0.504E-01    0.466E-01
DAV:   8    -0.448281383480E+02    0.56925E-02   -0.72900E-03   496   0.261E-01    0.148E-01
DAV:   9    -0.448270262348E+02    0.11121E-02   -0.12863E-03   552   0.125E-01    0.910E-02
DAV:  10    -0.448265707409E+02    0.45549E-03   -0.10841E-03   464   0.111E-01    0.465E-02
DAV:  11    -0.448263790967E+02    0.19164E-03   -0.22605E-04   424   0.627E-02    0.301E-02
DAV:  12    -0.448263114096E+02    0.67687E-04   -0.15332E-04   392   0.401E-02
   2 F= -.44826311E+02 E0= -.44825632E+02  d E =0.100461E+02
       N       E                     dE             d eps       ncg     rms          rms(c)
DAV:   1    -0.449690017388E+02   -0.14262E+00   -0.58861E+00   384   0.975E+00    0.396E-01
DAV:   2    -0.449706583755E+02   -0.16566E-02   -0.45781E-02   472   0.832E-01    0.228E-01
DAV:   3    -0.449731249471E+02   -0.24666E-02   -0.19895E-02   448   0.620E-01    0.189E-01
DAV:   4    -0.449692955792E+02    0.38294E-02   -0.89675E-03   448   0.417E-01    0.504E-02
DAV:   5    -0.449693866115E+02   -0.91032E-04   -0.11332E-03   480   0.118E-01    0.340E-02
DAV:   6    -0.449694098162E+02   -0.23205E-04   -0.52675E-05   336   0.323E-02
   3 F= -.44969410E+02 E0= -.44969246E+02  d E =0.990301E+01
       N       E                     dE             d eps       ncg     rms          rms(c)
DAV:   1    -0.451282717232E+02   -0.15889E+00   -0.22426E+01   384   0.191E+01    0.852E-01
DAV:   2    -0.451392841473E+02   -0.11012E-01   -0.23767E-01   464   0.176E+00    0.516E-01
DAV:   3    -0.451423514469E+02   -0.30673E-02   -0.38026E-02   448   0.861E-01    0.277E-01
DAV:   4    -0.451349652330E+02    0.73862E-02   -0.34568E-02   464   0.800E-01    0.984E-02
DAV:   5    -0.451343628584E+02    0.60237E-03   -0.35203E-03   480   0.255E-01    0.571E-02
DAV:   6    -0.451344220919E+02   -0.59233E-04   -0.59979E-04   528   0.885E-02
   4 F= -.45134422E+02 E0= -.45135016E+02  d E =0.973800E+01
       N       E                     dE             d eps       ncg     rms          rms(c)
DAV:   1    -0.451437697296E+02   -0.94069E-02   -0.30055E+00   384   0.713E+00    0.350E-01
DAV:   2    -0.451451498901E+02   -0.13802E-02   -0.35227E-02   472   0.666E-01    0.213E-01
DAV:   3    -0.451447250789E+02    0.42481E-03   -0.27852E-03   472   0.199E-01    0.703E-02
DAV:   4    -0.451449559864E+02   -0.23091E-03   -0.29836E-03   456   0.236E-01    0.496E-02
DAV:   5    -0.451445649098E+02    0.39108E-03   -0.98489E-04   360   0.142E-01    0.974E-03
DAV:   6    -0.451445951237E+02   -0.30214E-04   -0.81018E-05   360   0.368E-02
   5 F= -.45144595E+02 E0= -.45144757E+02  d E =0.972783E+01
