 vasp.6.1.2 22Jul20 (build Jan 16 2024 23:39:02) complex                         
 executed on             LinuxPGI date 2026.01.20  21:41:24
 running on    8 total cores
 distrk:  each k-point on    8 cores,    1 groups
 distr:  one band on NCORE=   1 cores,    8 groups


--------------------------------------------------------------------------------------------------------


 INCAR:
 POTCAR:    PAW_PBE Al 04Jan2001                  
 POTCAR:    PAW_PBE H 15Jun2001                   
 -----------------------------------------------------------------------------
|                                                                             |
|           W    W    AA    RRRRR   N    N  II  N    N   GGGG   !!!           |
|           W    W   A  A   R    R  NN   N  II  NN   N  G    G  !!!           |
|           W    W  A    A  R    R  N N  N  II  N N  N  G       !!!           |
|           W WW W  AAAAAA  RRRRR   N  N N  II  N  N N  G  GGG   !            |
|           WW  WW  A    A  R   R   N   NN  II  N   NN  G    G                |
|           W    W  A    A  R    R  N    N  II  N    N   GGGG   !!!           |
|                                                                             |
|     For optimal performance we recommend to set                             |
|       NCORE = 4 - approx SQRT(number of cores).                             |
|     NCORE specifies how many cores store one orbital (NPAR=cpu/NCORE).      |
|     This setting can greatly improve the performance of VASP for DFT.       |
|     The default, NCORE=1 might be grossly inefficient on modern             |
|     multi-core architectures or massively parallel machines. Do your        |
|     own testing!!!!                                                         |
|     Unfortunately you need to use the default for GW and RPA                |
|     calculations (for HF NCORE is supported but not extensively tested      |
|     yet).                                                                   |
|                                                                             |
 -----------------------------------------------------------------------------

 POTCAR:    PAW_PBE Al 04Jan2001                  
   SHA256 =  17880443556af62b473fe41b62a467bd001ad55d2cabe504a3f22e34d4e9db96 Al/POTCAR             
   COPYR  = (c) Copyright 04Jan2001 Georg Kresse                                                    
   COPYR  = This file is part of the software VASP. Any use, copying, and all other rights are regul
   COPYR  = If you do not have a valid VASP license, you may not use, copy or distribute this file. 
   VRHFIN =Al: s2p1                                                                                 
   LEXCH  = PE                                                                                      
   EATOM  =    53.5387 eV,    3.9350 Ry                                                             
                                                                                                    
   TITEL  = PAW_PBE Al 04Jan2001                                                                    
   LULTRA =        F    use ultrasoft PP ?                                                          
   IUNSCR =        1    unscreen: 0-lin 1-nonlin 2-no                                               
   RPACOR =    1.500    partial core radius                                                         
   POMASS =   26.981; ZVAL   =    3.000    mass and valenz                                          
   RCORE  =    1.900    outmost cutoff radius                                                       
   RWIGS  =    2.650; RWIGS  =    1.402    wigner-seitz radius (au A)                               
   ENMAX  =  240.300; ENMIN  =  180.225 eV                                                          
   ICORE  =        2    local potential                                                             
   LCOR   =        T    correct aug charges                                                         
   LPAW   =        T    paw PP                                                                      
   EAUG   =  291.052                                                                                
   DEXC   =    0.000                                                                                
   RMAX   =    1.939    core radius for proj-oper                                                   
   RAUG   =    1.300    factor for augmentation sphere                                              
   RDEP   =    1.966    radius for radial grids                                                     
   RDEPT  =    1.856    core radius for aug-charge                                                  
                                                                                                    
   Atomic configuration                                                                             
    6 entries                                                                                       
     n  l   j            E        occ.                                                              
     1  0  0.50     -1511.1048   2.0000                                                             
     2  0  0.50      -108.1629   2.0000                                                             
     2  1  1.50       -69.6402   6.0000                                                             
     3  0  0.50        -7.7528   2.0000                                                             
     3  1  1.50        -2.7121   1.0000                                                             
     3  2  2.50        -2.7212   0.0000                                                             
   Description                                                                                      
     l       E           TYP  RCUT    TYP  RCUT                                                     
     0     -7.7528455     23  1.900                                                                 
     0     -3.3096929     23  1.900                                                                 
     1     -2.7120682     23  1.900                                                                 
     1     13.6058260     23  1.900                                                                 
     2     -2.7211652      7  1.900                                                                 
  local pseudopotential read in
  partial core-charges read in
  partial kinetic energy density read in
  atomic valenz-charges read in
  non local Contribution for L=            0  read in
    real space projection operators read in
  non local Contribution for L=            0  read in
    real space projection operators read in
  non local Contribution for L=            1  read in
    real space projection operators read in
  non local Contribution for L=            1  read in
    real space projection operators read in
    PAW grid and wavefunctions read in
 
   number of l-projection  operators is LMAX  =            4
   number of lm-projection operators is LMMAX =            8
 
 POTCAR:    PAW_PBE H 15Jun2001                   
   SHA256 =  030f79b5d3ab3cf0e668861823c8fb652ff669f3e15e46930bd03bfd63a607b6 H/POTCAR              
   COPYR  = (c) Copyright 15Jun2001 Georg Kresse                                                    
   COPYR  = This file is part of the software VASP. Any use, copying, and all other rights are regul
   COPYR  = If you do not have a valid VASP license, you may not use, copy or distribute this file. 
   VRHFIN =H: ultrasoft test                                                                        
   LEXCH  = PE                                                                                      
   EATOM  =    12.4884 eV,    0.9179 Ry                                                             
                                                                                                    
   TITEL  = PAW_PBE H 15Jun2001                                                                     
   LULTRA =        F    use ultrasoft PP ?                                                          
   IUNSCR =        0    unscreen: 0-lin 1-nonlin 2-no                                               
   RPACOR =    0.000    partial core radius                                                         
   POMASS =    1.000; ZVAL   =    1.000    mass and valenz                                          
   RCORE  =    1.100    outmost cutoff radius                                                       
   RWIGS  =    0.700; RWIGS  =    0.370    wigner-seitz radius (au A)                               
   ENMAX  =  250.000; ENMIN  =  200.000 eV                                                          
   RCLOC  =    0.701    cutoff for local pot                                                        
   LCOR   =        T    correct aug charges                                                         
   LPAW   =        T    paw PP                                                                      
   EAUG   =  400.000                                                                                
   RMAX   =    1.123    core radius for proj-oper                                                   
   RAUG   =    1.200    factor for augmentation sphere                                              
   RDEP   =    1.112    radius for radial grids                                                     
   RDEPT  =    0.926    core radius for aug-charge                                                  
                                                                                                    
   Atomic configuration                                                                             
    2 entries                                                                                       
     n  l   j            E        occ.                                                              
     1  0  0.50        -6.4927   1.0000                                                             
     2  1  0.50        -3.4015   0.0000                                                             
   Description                                                                                      
     l       E           TYP  RCUT    TYP  RCUT                                                     
     0     -6.4927494     23  1.100                                                                 
     0      6.8029130     23  1.100                                                                 
     1     -4.0817478     23  1.100                                                                 
  local pseudopotential read in
  atomic valenz-charges read in
  non local Contribution for L=            0  read in
    real space projection operators read in
  non local Contribution for L=            0  read in
    real space projection operators read in
  non local Contribution for L=            1  read in
    real space projection operators read in
    PAW grid and wavefunctions read in
 
   number of l-projection  operators is LMAX  =            3
   number of lm-projection operators is LMMAX =            5
 
  PAW_PBE Al 04Jan2001                  :
 energy of atom  1       EATOM=  -53.5387
 kinetic energy error for atom=    0.0011 (will be added to EATOM!!)
  PAW_PBE H 15Jun2001                   :
 energy of atom  2       EATOM=  -12.4884
 kinetic energy error for atom=    0.0426 (will be added to EATOM!!)
 
 
 POSCAR: Al  H
  positions in cartesian coordinates
  No initial velocities read in
 exchange correlation table for  LEXCH =        8
   RHO(1)=    0.500       N(1)  =     2000
   RHO(2)=  100.500       N(2)  =     4000
 


--------------------------------------------------------------------------------------------------------


 ion  position               nearest neighbor table
   1  0.167  0.167  0.405-   5 2.86   8 2.86   3 2.86   3 2.86   4 2.86   4 2.86   2 2.86   2 2.86
                             6 2.86
   2  0.667  0.167  0.405-   6 2.86   7 2.86   4 2.86   3 2.86   4 2.86   3 2.86   1 2.86   1 2.86
                             5 2.86
   3  0.167  0.667  0.405-   6 2.86   7 2.86   1 2.86   1 2.86   2 2.86   2 2.86   4 2.86   4 2.86
                             8 2.86
   4  0.667  0.667  0.405-   5 2.86   8 2.86   2 2.86   1 2.86   2 2.86   1 2.86   3 2.86   3 2.86
                             7 2.86
   5  0.833  0.333  0.500-   1 2.86   4 2.86  11 2.86   9 2.86  12 2.86   7 2.86   7 2.86   8 2.86
                             8 2.86   6 2.86   6 2.86   2 2.86
   6  0.333  0.333  0.500-   2 2.86   3 2.86  12 2.86  10 2.86  11 2.86   8 2.86   7 2.86   8 2.86
                             7 2.86   5 2.86   5 2.86   1 2.86
   7  0.833  0.833  0.500-   2 2.86   3 2.86   9 2.86  11 2.86  10 2.86   5 2.86   5 2.86   6 2.86
                             6 2.86   8 2.86   8 2.86   4 2.86
   8  0.333  0.833  0.500-   1 2.86   4 2.86  10 2.86  12 2.86   9 2.86   6 2.86   5 2.86   6 2.86
                             5 2.86   7 2.86   7 2.86   3 2.86
   9  0.000  0.000  0.595-   7 2.86   5 2.86   8 2.86  11 2.86  11 2.86  12 2.86  12 2.86  10 2.86
                            10 2.86
  10  0.500  0.000  0.595-   8 2.86   6 2.86   7 2.86  12 2.86  11 2.86  12 2.86  11 2.86   9 2.86
                             9 2.86
  11  0.000  0.500  0.595-   5 2.86   7 2.86   6 2.86   9 2.86   9 2.86  10 2.86  10 2.86  12 2.86
                            12 2.86
  12  0.500  0.500  0.595-   6 2.86   8 2.86   5 2.86  10 2.86   9 2.86  10 2.86   9 2.86  11 2.86
                            11 2.86
  13  0.167  0.167  0.656-
 
  LATTYP: Found a hexagonal cell.
 ALAT       =     5.7275649276
 C/A-ratio  =     4.3083819201
  
  Lattice vectors:
  
 A1 = (   2.8637824638,  -4.9602167291,   0.0000000000)
 A2 = (  -5.7275649276,   0.0000000000,   0.0000000000)
 A3 = (   0.0000000000,   0.0000000000, -24.6765371804)


Analysis of symmetry for initial positions (statically):
=====================================================================
 Subroutine PRICEL returns:
 Original cell was already a primitive cell.
 

 Routine SETGRP: Setting up the symmetry group for a 
 hexagonal supercell.


 Subroutine GETGRP returns: Found  6 space group operations
 (whereof  2 operations were pure point group operations)
 out of a pool of 24 trial point group operations.


The static configuration has the point symmetry C_1h.
 The point group associated with its full space group is C_3v.


Analysis of symmetry for dynamics (positions and initial velocities):
=====================================================================
 Subroutine PRICEL returns:
 Original cell was already a primitive cell.
 

 Routine SETGRP: Setting up the symmetry group for a 
 hexagonal supercell.


 Subroutine GETGRP returns: Found  6 space group operations
 (whereof  2 operations were pure point group operations)
 out of a pool of 24 trial point group operations.


The dynamic configuration has the point symmetry C_1h.
 The point group associated with its full space group is C_3v.


Analysis of constrained symmetry for selective dynamics:
=====================================================================
 Subroutine PRICEL returns:
 Original cell was already a primitive cell.
 

 Routine SETGRP: Setting up the symmetry group for a 
 hexagonal supercell.


 Subroutine GETGRP returns: Found  6 space group operations
 (whereof  2 operations were pure point group operations)
 out of a pool of 24 trial point group operations.


The constrained configuration has the point symmetry C_1h.
 The point group associated with its full space group is C_3v.


 Subroutine INISYM returns: Found  6 space group operations
 (whereof  2 operations are pure point group operations),
 and found     1 'primitive' translations


----------------------------------------------------------------------------------------

                                     Primitive cell                                     

  volume of cell :     701.0595

  direct lattice vectors                    reciprocal lattice vectors
     5.727564928  0.000000000  0.000000000     0.174594267 -0.100802047  0.000000000
     2.863782464  4.960216729  0.000000000     0.000000000  0.201604094  0.000000000
     0.000000000  0.000000000 24.676537180     0.000000000  0.000000000  0.040524324

  length of vectors
     5.727564928  5.727564928 24.676537180     0.201604094  0.201604094  0.040524324

  position of ions in fractional coordinates (direct lattice)
     0.166666667  0.166666667  0.405243245
     0.666666667  0.166666667  0.405243245
     0.166666667  0.666666667  0.405243245
     0.666666667  0.666666667  0.405243245
     0.833333333  0.333333333  0.500000000
     0.333333333  0.333333333  0.500000000
     0.833333333  0.833333333  0.500000000
     0.333333333  0.833333333  0.500000000
     0.000000000  0.000000000  0.594756755
     0.500000000  0.000000000  0.594756755
     1.000000000  0.500000000  0.594756755
     0.500000000  0.500000000  0.594756755
     0.166666667  0.166666667  0.655543242

  ion indices of the primitive-cell ions
   primitive index   ion index
                 1           1
                 2           2
                 3           3
                 4           4
                 5           5
                 6           6
                 7           7
                 8           8
                 9           9
                10          10
                11          11
                12          12
                13          13

----------------------------------------------------------------------------------------

 
 
 KPOINTS: KPOINTS generated by vasp-ase           

Automatic generation of k-mesh.
Space group operators:
 irot       det(A)        alpha          n_x          n_y          n_z        tau_x        tau_y        tau_z
    1     1.000000     0.000000     1.000000     0.000000     0.000000     0.000000     0.000000     0.000000
    2    -1.000000   180.000000     0.500000    -0.866025     0.000000     0.000000     0.000000     0.000000
    3     1.000000   120.000000     0.000000     0.000000     1.000000     0.000000     0.500000     0.000000
    4     1.000000   120.000000     0.000000     0.000000    -1.000000    -0.500000    -0.000000     0.000000
    5    -1.000000   180.000000     1.000000    -0.000000     0.000000    -0.500000     0.000000     0.000000
    6    -1.000000   180.000000    -0.500000    -0.866025     0.000000     0.000000     0.500000     0.000000
 
 Subroutine IBZKPT returns following result:
 ===========================================
 
 Found      6 irreducible k-points:
 
 Following reciprocal coordinates:
            Coordinates               Weight
  0.125000  0.125000  0.000000      6.000000
  0.375000  0.125000  0.000000     12.000000
 -0.375000  0.125000  0.000000     12.000000
 -0.125000  0.125000  0.000000      6.000000
  0.375000  0.375000  0.000000      6.000000
 -0.375000  0.375000  0.000000      6.000000
 
 Following cartesian coordinates:
            Coordinates               Weight
  0.021824  0.012600  0.000000      6.000000
  0.065473 -0.012600  0.000000     12.000000
 -0.065473  0.063001  0.000000     12.000000
 -0.021824  0.037801  0.000000      6.000000
  0.065473  0.037801  0.000000      6.000000
 -0.065473  0.113402  0.000000      6.000000
 


--------------------------------------------------------------------------------------------------------




 Dimension of arrays:
   k-points           NKPTS =      6   k-points in BZ     NKDIM =      6   number of bands    NBANDS=     32
   number of dos      NEDOS =    301   number of ions     NIONS =     13
   non local maximal  LDIM  =      4   non local SUM 2l+1 LMDIM =      8
   total plane-waves  NPLWV =  62208
   max r-space proj   IRMAX =      1   max aug-charges    IRDMAX=   3653
   dimension x,y,z NGX =    24 NGY =   24 NGZ =  108
   dimension x,y,z NGXF=    48 NGYF=   48 NGZF=  216
   support grid    NGXF=    48 NGYF=   48 NGZF=  216
   ions per type =              12   1
   NGX,Y,Z   is equivalent  to a cutoff of   6.97,  6.97,  7.28 a.u.
   NGXF,Y,Z  is equivalent  to a cutoff of  13.93, 13.93, 14.55 a.u.

 SYSTEM =  unknown system                          
 POSCAR =  Al  H                                   

 Startparameter for this run:
   NWRITE =      2    write-flag & timer
   PREC   = normal    normal or accurate (medium, high low for compatibility)
   ISTART =      0    job   : 0-new  1-cont  2-samecut
   ICHARG =      2    charge: 1-file 2-atom 10-const
   ISPIN  =      1    spin polarized calculation?
   LNONCOLLINEAR =      F non collinear calculations
   LSORBIT =      F    spin-orbit coupling
   INIWAV =      1    electr: 0-lowe 1-rand  2-diag
   LASPH  =      F    aspherical Exc in radial PAW
   METAGGA=      F    non-selfconsistent MetaGGA calc.

 Electronic Relaxation 1
   ENCUT  =  300.0 eV  22.05 Ry    4.70 a.u.   8.09  8.09 34.85*2*pi/ulx,y,z
   ENINI  =  300.0     initial cutoff
   ENAUG  =  400.0 eV  augmentation charge cutoff
   NELM   =     60;   NELMIN=  2; NELMDL= -5     # of ELM steps 
   EDIFF  = 0.1E-03   stopping-criterion for ELM
   LREAL  =      F    real-space projection
   NLSPLINE    = F    spline interpolate recip. space projectors
   LCOMPAT=      F    compatible to vasp.4.4
   GGA_COMPAT  = T    GGA compatible to vasp.4.4-vasp.4.6
   LMAXPAW     = -100 max onsite density
   LMAXMIX     =    2 max onsite mixed and CHGCAR
   VOSKOWN=      0    Vosko Wilk Nusair interpolation
   ROPT   =    0.00000   0.00000
 Ionic relaxation
   EDIFFG = -.5E-01   stopping-criterion for IOM
   NSW    =     20    number of steps for IOM
   NBLOCK =      1;   KBLOCK =     20    inner block; outer block 
   IBRION =      2    ionic relax: 0-MD 1-quasi-New 2-CG
   NFREE  =      1    steps in history (QN), initial steepest desc. (CG)
   ISIF   =      2    stress and relaxation
   IWAVPR =     11    prediction:  0-non 1-charg 2-wave 3-comb
   ISYM   =      2    0-nonsym 1-usesym 2-fastsym
   LCORR  =      T    Harris-Foulkes like correction to forces

   POTIM  = 0.5000    time-step for ionic-motion
   TEIN   =    0.0    initial temperature
   TEBEG  =    0.0;   TEEND  =   0.0 temperature during run
   SMASS  =  -3.00    Nose mass-parameter (am)
   estimated Nose-frequenzy (Omega)   =  0.10E-29 period in steps = 0.13E+47 mass=  -0.750E-27a.u.
   SCALEE = 1.0000    scale energy and forces
   NPACO  =    256;   APACO  = 16.0  distance and # of slots for P.C.
   PSTRESS=    0.0 pullay stress

  Mass of Ions in am
   POMASS =  26.98  1.00
  Ionic Valenz
   ZVAL   =   3.00  1.00
  Atomic Wigner-Seitz radii
   RWIGS  =  -1.00 -1.00
  virtual crystal weights 
   VCA    =   1.00  1.00
   NELECT =      37.0000    total number of electrons
   NUPDOWN=      -1.0000    fix difference up-down

 DOS related values:
   EMIN   =  10.00;   EMAX   =-10.00  energy-range for DOS
   EFERMI =   0.00
   ISMEAR =     1;   SIGMA  =   0.10  broadening in eV -4-tet -1-fermi 0-gaus

 Electronic relaxation 2 (details)
   IALGO  =     38    algorithm
   LDIAG  =      T    sub-space diagonalisation (order eigenvalues)
   LSUBROT=      F    optimize rotation matrix (better conditioning)
   TURBO    =      0    0=normal 1=particle mesh
   IRESTART =      0    0=no restart 2=restart with 2 vectors
   NREBOOT  =      0    no. of reboots
   NMIN     =      0    reboot dimension
   EREF     =   0.00    reference energy to select bands
   IMIX   =      4    mixing-type and parameters
     AMIX     =   0.40;   BMIX     =  1.00
     AMIX_MAG =   1.60;   BMIX_MAG =  1.00
     AMIN     =   0.10
     WC   =   100.;   INIMIX=   1;  MIXPRE=   1;  MAXMIX= -45

 Intra band minimization:
   WEIMIN = 0.0010     energy-eigenvalue tresh-hold
   EBREAK =  0.78E-06  absolut break condition
   DEPER  =   0.30     relativ break condition  

   TIME   =   0.40     timestep for ELM

  volume/ion in A,a.u.               =      53.93       363.92
  Fermi-wavevector in a.u.,A,eV,Ry     =   0.614078  1.160440  5.130651  0.377092
  Thomas-Fermi vector in A             =   1.670959
 
 Write flags
   LWAVE        =      F    write WAVECAR
   LDOWNSAMPLE  =      F    k-point downsampling of WAVECAR
   LCHARG       =      F    write CHGCAR
   LVTOT        =      F    write LOCPOT, total local potential
   LVHAR        =      F    write LOCPOT, Hartree potential only
   LELF         =      F    write electronic localiz. function (ELF)
   LORBIT       =      0    0 simple, 1 ext, 2 COOP (PROOUT), +10 PAW based schemes


 Dipole corrections
   LMONO  =      F    monopole corrections only (constant potential shift)
   LDIPOL =      T    correct potential (dipole corrections)
   IDIPOL =      3    1-x, 2-y, 3-z, 4-all directions 
   EPSILON=  1.0000000 bulk dielectric constant

 Exchange correlation treatment:
   GGA     =    PE    GGA type
   LEXCH   =     8    internal setting for exchange type
   VOSKOWN=      0    Vosko Wilk Nusair interpolation
   LHFCALC =     F    Hartree Fock is set to
   LHFONE  =     F    Hartree Fock one center treatment
   AEXX    =    0.0000 exact exchange contribution

 Linear response parameters
   LEPSILON=     F    determine dielectric tensor
   LRPA    =     F    only Hartree local field effects (RPA)
   LNABLA  =     F    use nabla operator in PAW spheres
   LVEL    =     F    velocity operator in full k-point grid
   LINTERFAST=   F  fast interpolation
   KINTER  =     0    interpolate to denser k-point grid
   CSHIFT  =0.1000    complex shift for real part using Kramers Kronig
   OMEGAMAX=  -1.0    maximum frequency
   DEG_THRESHOLD= 0.2000000E-02 threshold for treating states as degnerate
   RTIME   =   -0.100 relaxation time in fs
  (WPLASMAI=    0.000 imaginary part of plasma frequency in eV, 0.658/RTIME)
   DFIELD  = 0.0000000 0.0000000 0.0000000 field for delta impulse in time
 
 Orbital magnetization related:
   ORBITALMAG=     F  switch on orbital magnetization
   LCHIMAG   =     F  perturbation theory with respect to B field
   DQ        =  0.001000  dq finite difference perturbation B field
   LLRAUG    =     F  two centre corrections for induced B field



--------------------------------------------------------------------------------------------------------


 conjugate gradient relaxation of ions
   using selective dynamics as specified on POSCAR
   WARNING: If single coordinates had been selected the selection of coordinates
            is made according to the corresponding   d i r e c t   coordinates!
            Don't support selection of single cartesian coordinates -- sorry ... !
 charge density and potential will be updated during run
 non-spin polarized calculation
 Variant of blocked Davidson
 Davidson routine will perform the subspace rotation
 perform sub-space diagonalisation
    after iterative eigenvector-optimisation
 modified Broyden-mixing scheme, WC =      100.0
 initial mixing is a Kerker type mixing with AMIX =  0.4000 and BMIX =      1.0000
 Hartree-type preconditioning will be used
 using additional bands            13
 reciprocal scheme for non local part
 use partial core corrections
 calculate Harris-corrections to forces 
   (improved forces if not selfconsistent)
 use gradient corrections 
 use of overlap-Matrix (Vanderbilt PP)
 Methfessel and Paxton  Order N= 1 SIGMA  =   0.10


--------------------------------------------------------------------------------------------------------


  energy-cutoff  :      300.00
  volume of cell :      701.06
      direct lattice vectors                 reciprocal lattice vectors
     5.727564928  0.000000000  0.000000000     0.174594267 -0.100802047  0.000000000
     2.863782464  4.960216729  0.000000000     0.000000000  0.201604094  0.000000000
     0.000000000  0.000000000 24.676537180     0.000000000  0.000000000  0.040524324

  length of vectors
     5.727564928  5.727564928 24.676537180     0.201604094  0.201604094  0.040524324


 
 k-points in units of 2pi/SCALE and weight: KPOINTS generated by vasp-ase           
   0.02182428  0.01260026  0.00000000       0.125
   0.06547285 -0.01260026  0.00000000       0.250
  -0.06547285  0.06300128  0.00000000       0.250
  -0.02182428  0.03780077  0.00000000       0.125
   0.06547285  0.03780077  0.00000000       0.125
  -0.06547285  0.11340230  0.00000000       0.125
 
 k-points in reciprocal lattice and weights: KPOINTS generated by vasp-ase           
   0.12500000  0.12500000  0.00000000       0.125
   0.37500000  0.12500000  0.00000000       0.250
  -0.37500000  0.12500000  0.00000000       0.250
  -0.12500000  0.12500000  0.00000000       0.125
   0.37500000  0.37500000  0.00000000       0.125
  -0.37500000  0.37500000  0.00000000       0.125
 
 position of ions in fractional coordinates (direct lattice) 
   0.16666667  0.16666667  0.40524324
   0.66666667  0.16666667  0.40524324
   0.16666667  0.66666667  0.40524324
   0.66666667  0.66666667  0.40524324
   0.83333333  0.33333333  0.50000000
   0.33333333  0.33333333  0.50000000
   0.83333333  0.83333333  0.50000000
   0.33333333  0.83333333  0.50000000
   0.00000000  0.00000000  0.59475676
   0.50000000  0.00000000  0.59475676
   0.00000000  0.50000000  0.59475676
   0.50000000  0.50000000  0.59475676
   0.16666667  0.16666667  0.65554324
 
 position of ions in cartesian coordinates  (Angst):
   1.43189123  0.82670279 10.00000000
   4.29567370  0.82670279 10.00000000
   2.86378246  3.30681115 10.00000000
   5.72756493  3.30681115 10.00000000
   5.72756493  1.65340558 12.33826859
   2.86378246  1.65340558 12.33826859
   7.15945616  4.13351394 12.33826859
   4.29567370  4.13351394 12.33826859
   0.00000000  0.00000000 14.67653718
   2.86378246  0.00000000 14.67653718
   1.43189123  2.48010836 14.67653718
   4.29567370  2.48010836 14.67653718
   1.43189123  0.82670279 16.17653718
 


--------------------------------------------------------------------------------------------------------


 k-point   1 :   0.1250 0.1250 0.0000  plane waves:    8214
 k-point   2 :   0.3750 0.1250 0.0000  plane waves:    8268
 k-point   3 :  -0.3750 0.1250 0.0000  plane waves:    8283
 k-point   4 :  -0.1250 0.1250 0.0000  plane waves:    8244
 k-point   5 :   0.3750 0.3750 0.0000  plane waves:    8296
 k-point   6 :  -0.3750 0.3750 0.0000  plane waves:    8282

 maximum and minimum number of plane-waves per node :      8296     8214

 maximum number of plane-waves:      8296
 maximum index in each direction: 
   IXMAX=    8   IYMAX=    7   IZMAX=   34
   IXMIN=   -8   IYMIN=   -8   IZMIN=  -34


 serial   3D FFT for wavefunctions
 parallel 3D FFT for charge:
    minimum data exchange during FFTs selected (reduces bandwidth)


 total amount of memory used by VASP MPI-rank0    49718. kBytes
=======================================================================

   base      :      30000. kBytes
   nonl-proj :       8096. kBytes
   fftplans  :       2354. kBytes
   grid      :       6004. kBytes
   one-center:         39. kBytes
   wavefun   :       3225. kBytes
 
     INWAV:  cpu time    0.0000: real time    0.0000
 Broyden mixing: mesh for mixing (old mesh)
   NGX = 17   NGY = 17   NGZ = 69
  (NGX  = 48   NGY  = 48   NGZ  =216)
  gives a total of  19941 points

 initial charge density was supplied:
 charge density of overlapping atoms calculated
 number of electron      37.0000000 magnetization 
 keeping initial charge density in first step


--------------------------------------------------------------------------------------------------------


 Maximum index for augmentation-charges           440 (set IRDMAX)


--------------------------------------------------------------------------------------------------------


 First call to EWALD:  gamma=   0.200
 Maximum number of real-space cells 5x 5x 1
 Maximum number of reciprocal cells 2x 2x 7

    FEWALD:  cpu time    0.0014: real time    0.0014


--------------------------------------- Iteration      1(   1)  ---------------------------------------


    POTLOK:  cpu time    0.0640: real time    0.0640
    SETDIJ:  cpu time    0.0031: real time    0.0031
     EDDAV:  cpu time    0.6528: real time    0.6532
       DOS:  cpu time    0.0004: real time    0.0004
    --------------------------------------------
      LOOP:  cpu time    0.7204: real time    0.7208

 eigenvalue-minimisations  :   384
 total energy-change (2. order) : 0.9879345E+02  (-0.8084529E+03)
 number of electron      37.0000000 magnetization 
 augmentation part       37.0000000 magnetization 

 DIPCOR: dipole corrections for dipol
 direction  3 min pos   216,
 dipolmoment           0.000000      0.000000     -0.000096 electrons x Angstroem
 Tr[quadrupol]      -175.796118

 energy correction for charged system         0.000000 eV
 dipol+quadrupol energy correction           -0.000000 eV
 added-field ion interaction          0.000199 eV  (added to PSCEN)


 Free energy of the ion-electron system (eV)
  ---------------------------------------------------
  alpha Z        PSCENC =        -0.58030184
  Ewald energy   TEWEN  =      3777.99846526
  -Hartree energ DENC   =     -4306.83815329
  -exchange      EXHF   =         0.00000000
  -V(xc)+E(xc)   XCENC  =      -315.88702780
  PAW double counting   =       796.53591295     -413.09035430
  entropy T*S    EENTRO =        -0.00465315
  eigenvalues    EBANDS =       -94.23770097
  atomic energy  EATOM  =       654.89726341
  Solvation  Ediel_sol  =         0.00000000
  ---------------------------------------------------
  free energy    TOTEN  =        98.79345028 eV

  energy without entropy =       98.79810342  energy(sigma->0) =       98.79500133


--------------------------------------------------------------------------------------------------------




--------------------------------------- Iteration      1(   2)  ---------------------------------------


     EDDAV:  cpu time    0.8188: real time    0.8194
       DOS:  cpu time    0.0003: real time    0.0003
    --------------------------------------------
      LOOP:  cpu time    0.8191: real time    0.8197

 eigenvalue-minimisations  :   536
 total energy-change (2. order) :-0.1386006E+03  (-0.1330383E+03)
 number of electron      37.0000000 magnetization 
 augmentation part       37.0000000 magnetization 

 DIPCOR: dipole corrections for dipol
 direction  3 min pos   216,
 dipolmoment           0.000000      0.000000     -0.000096 electrons x Angstroem
 Tr[quadrupol]      -175.796118

 energy correction for charged system         0.000000 eV
 dipol+quadrupol energy correction           -0.000000 eV
 added-field ion interaction          0.000199 eV  (added to PSCEN)


 Free energy of the ion-electron system (eV)
  ---------------------------------------------------
  alpha Z        PSCENC =        -0.58030184
  Ewald energy   TEWEN  =      3777.99846526
  -Hartree energ DENC   =     -4306.83815329
  -exchange      EXHF   =         0.00000000
  -V(xc)+E(xc)   XCENC  =      -315.88702780
  PAW double counting   =       796.53591295     -413.09035430
  entropy T*S    EENTRO =         0.00235273
  eigenvalues    EBANDS =      -232.84531837
  atomic energy  EATOM  =       654.89726341
  Solvation  Ediel_sol  =         0.00000000
  ---------------------------------------------------
  free energy    TOTEN  =       -39.80716125 eV

  energy without entropy =      -39.80951398  energy(sigma->0) =      -39.80794549


--------------------------------------------------------------------------------------------------------




--------------------------------------- Iteration      1(   3)  ---------------------------------------


     EDDAV:  cpu time    0.7558: real time    0.7562
       DOS:  cpu time    0.0003: real time    0.0003
    --------------------------------------------
      LOOP:  cpu time    0.7561: real time    0.7565

 eigenvalue-minimisations  :   480
 total energy-change (2. order) :-0.6718111E+01  (-0.6563122E+01)
 number of electron      37.0000000 magnetization 
 augmentation part       37.0000000 magnetization 

 DIPCOR: dipole corrections for dipol
 direction  3 min pos   216,
 dipolmoment           0.000000      0.000000     -0.000096 electrons x Angstroem
 Tr[quadrupol]      -175.796118

 energy correction for charged system         0.000000 eV
 dipol+quadrupol energy correction           -0.000000 eV
 added-field ion interaction          0.000199 eV  (added to PSCEN)


 Free energy of the ion-electron system (eV)
  ---------------------------------------------------
  alpha Z        PSCENC =        -0.58030184
  Ewald energy   TEWEN  =      3777.99846526
  -Hartree energ DENC   =     -4306.83815329
  -exchange      EXHF   =         0.00000000
  -V(xc)+E(xc)   XCENC  =      -315.88702780
  PAW double counting   =       796.53591295     -413.09035430
  entropy T*S    EENTRO =        -0.00099145
  eigenvalues    EBANDS =      -239.56008535
  atomic energy  EATOM  =       654.89726341
  Solvation  Ediel_sol  =         0.00000000
  ---------------------------------------------------
  free energy    TOTEN  =       -46.52527240 eV

  energy without entropy =      -46.52428095  energy(sigma->0) =      -46.52494191


--------------------------------------------------------------------------------------------------------




--------------------------------------- Iteration      1(   4)  ---------------------------------------


     EDDAV:  cpu time    0.8967: real time    0.8973
       DOS:  cpu time    0.0003: real time    0.0003
    --------------------------------------------
      LOOP:  cpu time    0.8971: real time    0.8977

 eigenvalue-minimisations  :   600
 total energy-change (2. order) :-0.2751666E+00  (-0.2748298E+00)
 number of electron      37.0000000 magnetization 
 augmentation part       37.0000000 magnetization 

 DIPCOR: dipole corrections for dipol
 direction  3 min pos   216,
 dipolmoment           0.000000      0.000000     -0.000096 electrons x Angstroem
 Tr[quadrupol]      -175.796118

 energy correction for charged system         0.000000 eV
 dipol+quadrupol energy correction           -0.000000 eV
 added-field ion interaction          0.000199 eV  (added to PSCEN)


 Free energy of the ion-electron system (eV)
  ---------------------------------------------------
  alpha Z        PSCENC =        -0.58030184
  Ewald energy   TEWEN  =      3777.99846526
  -Hartree energ DENC   =     -4306.83815329
  -exchange      EXHF   =         0.00000000
  -V(xc)+E(xc)   XCENC  =      -315.88702780
  PAW double counting   =       796.53591295     -413.09035430
  entropy T*S    EENTRO =        -0.00108178
  eigenvalues    EBANDS =      -239.83516163
  atomic energy  EATOM  =       654.89726341
  Solvation  Ediel_sol  =         0.00000000
  ---------------------------------------------------
  free energy    TOTEN  =       -46.80043901 eV

  energy without entropy =      -46.79935723  energy(sigma->0) =      -46.80007842


--------------------------------------------------------------------------------------------------------




--------------------------------------- Iteration      1(   5)  ---------------------------------------


     EDDAV:  cpu time    0.9361: real time    0.9366
       DOS:  cpu time    0.0003: real time    0.0003
    CHARGE:  cpu time    0.0524: real time    0.0524
    MIXING:  cpu time    0.0018: real time    0.0018
    --------------------------------------------
      LOOP:  cpu time    0.9906: real time    0.9911

 eigenvalue-minimisations  :   640
 total energy-change (2. order) :-0.1002641E-01  (-0.1002548E-01)
 number of electron      37.0000003 magnetization 
 augmentation part       -0.4590387 magnetization 

 DIPCOR: dipole corrections for dipol
 direction  3 min pos   216,
 dipolmoment           0.000000      0.000000     -0.000096 electrons x Angstroem
 Tr[quadrupol]      -175.796118

 energy correction for charged system         0.000000 eV
 dipol+quadrupol energy correction           -0.000000 eV
 added-field ion interaction          0.000199 eV  (added to PSCEN)


 Broyden mixing:
  rms(total) = 0.54287E+00    rms(broyden)= 0.54285E+00
  rms(prec ) = 0.67148E+00
  weight for this iteration     100.00

 Free energy of the ion-electron system (eV)
  ---------------------------------------------------
  alpha Z        PSCENC =        -0.58030184
  Ewald energy   TEWEN  =      3777.99846526
  -Hartree energ DENC   =     -4306.83815329
  -exchange      EXHF   =         0.00000000
  -V(xc)+E(xc)   XCENC  =      -315.88702780
  PAW double counting   =       796.53591295     -413.09035430
  entropy T*S    EENTRO =        -0.00109351
  eigenvalues    EBANDS =      -239.84517631
  atomic energy  EATOM  =       654.89726341
  Solvation  Ediel_sol  =         0.00000000
  ---------------------------------------------------
  free energy    TOTEN  =       -46.81046542 eV

  energy without entropy =      -46.80937191  energy(sigma->0) =      -46.81010091


--------------------------------------------------------------------------------------------------------




--------------------------------------- Iteration      1(   6)  ---------------------------------------


    POTLOK:  cpu time    0.0516: real time    0.0516
    SETDIJ:  cpu time    0.0032: real time    0.0032
     EDDAV:  cpu time    0.8135: real time    0.8140
       DOS:  cpu time    0.0003: real time    0.0003
    CHARGE:  cpu time    0.0403: real time    0.0403
    MIXING:  cpu time    0.0019: real time    0.0019
    --------------------------------------------
      LOOP:  cpu time    0.9108: real time    0.9114

 eigenvalue-minimisations  :   536
 total energy-change (2. order) :-0.1005874E+04  (-0.7092000E+03)
 number of electron      36.9999994 magnetization 
 augmentation part       -0.5944792 magnetization 

 DIPCOR: dipole corrections for dipol
 direction  3 min pos   118,
 dipolmoment           0.000000      0.000000    -16.467407 electrons x Angstroem
 Tr[quadrupol]      -563.984570

 energy correction for charged system         0.000000 eV
 dipol+quadrupol energy correction          -34.996984 eV
 added-field ion interaction        431.490808 eV  (added to PSCEN)


 Broyden mixing:
  rms(total) = 0.37967E+01    rms(broyden)= 0.37966E+01
  rms(prec ) = 0.53879E+01
  weight for this iteration     100.00

 eigenvalues of (default mixing * dielectric matrix)
  average eigenvalue GAMMA=   0.0546
  0.0546

 Free energy of the ion-electron system (eV)
  ---------------------------------------------------
  alpha Z        PSCENC =       395.91332322
  Ewald energy   TEWEN  =      3777.99846526
  -Hartree energ DENC   =     -4332.64743429
  -exchange      EXHF   =         0.00000000
  -V(xc)+E(xc)   XCENC  =      -315.35426591
  PAW double counting   =      1129.46933324     -746.06698487
  entropy T*S    EENTRO =        -0.00731581
  eigenvalues    EBANDS =     -1616.88705069
  atomic energy  EATOM  =       654.89726341
  Solvation  Ediel_sol  =         0.00000000
  ---------------------------------------------------
  free energy    TOTEN  =     -1052.68466644 eV

  energy without entropy =    -1052.67735063  energy(sigma->0) =    -1052.68222783


--------------------------------------------------------------------------------------------------------




--------------------------------------- Iteration      1(   7)  ---------------------------------------


    POTLOK:  cpu time    0.0497: real time    0.0497
    SETDIJ:  cpu time    0.0031: real time    0.0031
     EDDAV:  cpu time    0.7617: real time    0.7622
       DOS:  cpu time    0.0003: real time    0.0003
    CHARGE:  cpu time    0.0471: real time    0.0471
    MIXING:  cpu time    0.0024: real time    0.0024
    --------------------------------------------
      LOOP:  cpu time    0.8644: real time    0.8650

 eigenvalue-minimisations  :   488
 total energy-change (2. order) : 0.9868729E+03  (-0.4907499E+02)
 number of electron      36.9999997 magnetization 
 augmentation part       -0.4130569 magnetization 

 DIPCOR: dipole corrections for dipol
 direction  3 min pos    70,
 dipolmoment           0.000000      0.000000      5.671445 electrons x Angstroem
 Tr[quadrupol]      -212.010274

 energy correction for charged system         0.000000 eV
 dipol+quadrupol energy correction           -4.151142 eV
 added-field ion interaction        421.339939 eV  (added to PSCEN)


 Broyden mixing:
  rms(total) = 0.49580E+01    rms(broyden)= 0.49579E+01
  rms(prec ) = 0.60305E+01
  weight for this iteration     100.00

 eigenvalues of (default mixing * dielectric matrix)
  average eigenvalue GAMMA=   0.0293
  0.0568  0.0019

 Free energy of the ion-electron system (eV)
  ---------------------------------------------------
  alpha Z        PSCENC =       416.60829534
  Ewald energy   TEWEN  =      3777.99846526
  -Hartree energ DENC   =     -4330.15184042
  -exchange      EXHF   =         0.00000000
  -V(xc)+E(xc)   XCENC  =      -315.34262773
  PAW double counting   =      1074.40066176     -690.99368556
  entropy T*S    EENTRO =         0.00151404
  eigenvalues    EBANDS =      -653.22978841
  atomic energy  EATOM  =       654.89726341
  Solvation  Ediel_sol  =         0.00000000
  ---------------------------------------------------
  free energy    TOTEN  =       -65.81174230 eV

  energy without entropy =      -65.81325635  energy(sigma->0) =      -65.81224698


--------------------------------------------------------------------------------------------------------




--------------------------------------- Iteration      1(   8)  ---------------------------------------


    POTLOK:  cpu time    0.0511: real time    0.0511
    SETDIJ:  cpu time    0.0032: real time    0.0032
     EDDAV:  cpu time    0.9036: real time    0.9040
       DOS:  cpu time    0.0003: real time    0.0003
    CHARGE:  cpu time    0.0474: real time    0.0474
    MIXING:  cpu time    0.0021: real time    0.0021
    --------------------------------------------
      LOOP:  cpu time    1.0077: real time    1.0081

 eigenvalue-minimisations  :   616
 total energy-change (2. order) : 0.2581956E+02  (-0.2774471E+02)
 number of electron      37.0000000 magnetization 
 augmentation part       -0.4789065 magnetization 

 DIPCOR: dipole corrections for dipol
 direction  3 min pos    46,
 dipolmoment           0.000000      0.000000      0.055861 electrons x Angstroem
 Tr[quadrupol]      -179.322660

 energy correction for charged system         0.000000 eV
 dipol+quadrupol energy correction           -0.000403 eV
 added-field ion interaction          2.687261 eV  (added to PSCEN)


 Broyden mixing:
  rms(total) = 0.10534E+01    rms(broyden)= 0.10534E+01
  rms(prec ) = 0.11297E+01
  weight for this iteration     100.00

 eigenvalues of (default mixing * dielectric matrix)
  average eigenvalue GAMMA=   0.2282
  0.6003  0.0566  0.0277

 Free energy of the ion-electron system (eV)
  ---------------------------------------------------
  alpha Z        PSCENC =         2.10635724
  Ewald energy   TEWEN  =      3777.99846526
  -Hartree energ DENC   =     -4327.76596624
  -exchange      EXHF   =         0.00000000
  -V(xc)+E(xc)   XCENC  =      -315.33203254
  PAW double counting   =      1094.82960074     -711.41911736
  entropy T*S    EENTRO =        -0.00393417
  eigenvalues    EBANDS =      -215.30281467
  atomic energy  EATOM  =       654.89726341
  Solvation  Ediel_sol  =         0.00000000
  ---------------------------------------------------
  free energy    TOTEN  =       -39.99217832 eV

  energy without entropy =      -39.98824415  energy(sigma->0) =      -39.99086693


--------------------------------------------------------------------------------------------------------




--------------------------------------- Iteration      1(   9)  ---------------------------------------


    POTLOK:  cpu time    0.0496: real time    0.0496
    SETDIJ:  cpu time    0.0031: real time    0.0031
     EDDAV:  cpu time    0.8949: real time    0.8955
       DOS:  cpu time    0.0003: real time    0.0003
    CHARGE:  cpu time    0.0393: real time    0.0393
    MIXING:  cpu time    0.0021: real time    0.0021
    --------------------------------------------
      LOOP:  cpu time    0.9893: real time    0.9899

 eigenvalue-minimisations  :   616
 total energy-change (2. order) :-0.1145701E+05  (-0.1204667E+05)
 number of electron      37.0000008 magnetization 
 augmentation part       -0.2867604 magnetization 

 DIPCOR: dipole corrections for dipol
 direction  3 min pos   126,
 dipolmoment           0.000000      0.000000     95.623568 electrons x Angstroem
 Tr[quadrupol]      -658.086335

 energy correction for charged system         0.000000 eV
 dipol+quadrupol energy correction        -1180.076259 eV
 added-field ion interaction      -1670.959665 eV  (added to PSCEN)


 Broyden mixing:
  rms(total) = 0.85757E+01    rms(broyden)= 0.85757E+01
  rms(prec ) = 0.12034E+02
  weight for this iteration     100.00

 eigenvalues of (default mixing * dielectric matrix)
  average eigenvalue GAMMA=   0.1744
  0.6040  0.0563  0.0274  0.0097

 Free energy of the ion-electron system (eV)
  ---------------------------------------------------
  alpha Z        PSCENC =     -2851.61642507
  Ewald energy   TEWEN  =      3777.99846526
  -Hartree energ DENC   =     -4336.26046002
  -exchange      EXHF   =         0.00000000
  -V(xc)+E(xc)   XCENC  =      -315.08080395
  PAW double counting   =      1262.74996681     -879.36042980
  entropy T*S    EENTRO =        -0.00870381
  eigenvalues    EBANDS =     -8810.31609643
  atomic energy  EATOM  =       654.89726341
  Solvation  Ediel_sol  =         0.00000000
  ---------------------------------------------------
  free energy    TOTEN  =    -11496.99722360 eV

  energy without entropy =   -11496.98851979  energy(sigma->0) =   -11496.99432233


--------------------------------------------------------------------------------------------------------




--------------------------------------- Iteration      1(  10)  ---------------------------------------


    POTLOK:  cpu time    0.0507: real time    0.0507
    SETDIJ:  cpu time    0.0031: real time    0.0031
     EDDAV:  cpu time    1.0718: real time    1.0722
       DOS:  cpu time    0.0003: real time    0.0003
    CHARGE:  cpu time    0.0397: real time    0.0397
    MIXING:  cpu time    0.0022: real time    0.0022
    --------------------------------------------
      LOOP:  cpu time    1.1679: real time    1.1684

 eigenvalue-minimisations  :   768
 total energy-change (2. order) : 0.1139427E+05  (-0.8709584E+03)
 number of electron      36.9999999 magnetization 
 augmentation part       -0.3065803 magnetization 

 DIPCOR: dipole corrections for dipol
 direction  3 min pos    74,
 dipolmoment           0.000000      0.000000     12.549996 electrons x Angstroem
 Tr[quadrupol]      -254.784924

 energy correction for charged system         0.000000 eV
 dipol+quadrupol energy correction          -20.326723 eV
 added-field ion interaction        987.128063 eV  (added to PSCEN)


 Broyden mixing:
  rms(total) = 0.22783E+01    rms(broyden)= 0.22782E+01
  rms(prec ) = 0.48614E+01
  weight for this iteration     100.00

 eigenvalues of (default mixing * dielectric matrix)
  average eigenvalue GAMMA=   0.1622
  0.6064  0.1125  0.0570  0.0264  0.0086

 Free energy of the ion-electron system (eV)
  ---------------------------------------------------
  alpha Z        PSCENC =       966.22083873
  Ewald energy   TEWEN  =      3777.99846526
  -Hartree energ DENC   =     -4338.96637131
  -exchange      EXHF   =         0.00000000
  -V(xc)+E(xc)   XCENC  =      -315.04529912
  PAW double counting   =      1237.73618235     -854.35423281
  entropy T*S    EENTRO =        -0.00182943
  eigenvalues    EBANDS =     -1231.21476485
  atomic energy  EATOM  =       654.89726341
  Solvation  Ediel_sol  =         0.00000000
  ---------------------------------------------------
  free energy    TOTEN  =      -102.72974777 eV

  energy without entropy =     -102.72791834  energy(sigma->0) =     -102.72913796


--------------------------------------------------------------------------------------------------------




--------------------------------------- Iteration      1(  11)  ---------------------------------------


    POTLOK:  cpu time    0.0500: real time    0.0501
    SETDIJ:  cpu time    0.0032: real time    0.0032
     EDDAV:  cpu time    0.9575: real time    0.9580
       DOS:  cpu time    0.0003: real time    0.0003
    CHARGE:  cpu time    0.0401: real time    0.0401
    MIXING:  cpu time    0.0022: real time    0.0022
    --------------------------------------------
      LOOP:  cpu time    1.0533: real time    1.0538

 eigenvalue-minimisations  :   664
 total energy-change (2. order) :-0.3718307E+03  (-0.4382079E+03)
 number of electron      36.9999994 magnetization 
 augmentation part       -0.5052097 magnetization 

 DIPCOR: dipole corrections for dipol
 direction  3 min pos   139,
 dipolmoment           0.000000      0.000000    -29.488683 electrons x Angstroem
 Tr[quadrupol]      -425.113723

 energy correction for charged system         0.000000 eV
 dipol+quadrupol energy correction         -112.225343 eV
 added-field ion interaction       2350.924670 eV  (added to PSCEN)


 Broyden mixing:
  rms(total) = 0.28631E+01    rms(broyden)= 0.28631E+01
  rms(prec ) = 0.49274E+01
  weight for this iteration     100.00

 eigenvalues of (default mixing * dielectric matrix)
  average eigenvalue GAMMA=   0.1531
  0.6650  0.1287  0.0573  0.0263  0.0336  0.0080

 Free energy of the ion-electron system (eV)
  ---------------------------------------------------
  alpha Z        PSCENC =      2238.11882594
  Ewald energy   TEWEN  =      3777.99846526
  -Hartree energ DENC   =     -4332.16204148
  -exchange      EXHF   =         0.00000000
  -V(xc)+E(xc)   XCENC  =      -315.03667398
  PAW double counting   =      1217.32758291     -833.92756735
  entropy T*S    EENTRO =        -0.00748026
  eigenvalues    EBANDS =     -2881.76885569
  atomic energy  EATOM  =       654.89726341
  Solvation  Ediel_sol  =         0.00000000
  ---------------------------------------------------
  free energy    TOTEN  =      -474.56048125 eV

  energy without entropy =     -474.55300098  energy(sigma->0) =     -474.55798782


--------------------------------------------------------------------------------------------------------




--------------------------------------- Iteration      1(  12)  ---------------------------------------


    POTLOK:  cpu time    0.0505: real time    0.0505
    SETDIJ:  cpu time    0.0032: real time    0.0032
     EDDAV:  cpu time    1.0793: real time    1.0802
       DOS:  cpu time    0.0004: real time    0.0004
    CHARGE:  cpu time    0.0420: real time    0.0420
    MIXING:  cpu time    0.0028: real time    0.0028
    --------------------------------------------
      LOOP:  cpu time    1.1781: real time    1.1790

 eigenvalue-minimisations  :   760
 total energy-change (2. order) : 0.3839676E+02  (-0.4532967E+03)
 number of electron      36.9999995 magnetization 
 augmentation part       -0.4300023 magnetization 

 DIPCOR: dipole corrections for dipol
 direction  3 min pos    79,
 dipolmoment           0.000000      0.000000     33.570758 electrons x Angstroem
 Tr[quadrupol]      -386.050563

 energy correction for charged system         0.000000 eV
 dipol+quadrupol energy correction         -145.446236 eV
 added-field ion interaction       2823.665895 eV  (added to PSCEN)


 Broyden mixing:
  rms(total) = 0.38268E+01    rms(broyden)= 0.38268E+01
  rms(prec ) = 0.61164E+01
  weight for this iteration     100.00

 eigenvalues of (default mixing * dielectric matrix)
  average eigenvalue GAMMA=   0.1315
  0.6579  0.1323  0.0571  0.0260  0.0298  0.0099  0.0072

 Free energy of the ion-electron system (eV)
  ---------------------------------------------------
  alpha Z        PSCENC =      2677.63915812
  Ewald energy   TEWEN  =      3777.99846526
  -Hartree energ DENC   =     -4335.96149576
  -exchange      EXHF   =         0.00000000
  -V(xc)+E(xc)   XCENC  =      -314.98128254
  PAW double counting   =      1267.64715875     -884.25393926
  entropy T*S    EENTRO =        -0.00811172
  eigenvalues    EBANDS =     -3279.14093975
  atomic energy  EATOM  =       654.89726341
  Solvation  Ediel_sol  =         0.00000000
  ---------------------------------------------------
  free energy    TOTEN  =      -436.16372349 eV

  energy without entropy =     -436.15561176  energy(sigma->0) =     -436.16101958


--------------------------------------------------------------------------------------------------------




--------------------------------------- Iteration      1(  13)  ---------------------------------------


    POTLOK:  cpu time    0.0529: real time    0.0529
    SETDIJ:  cpu time    0.0032: real time    0.0032
     EDDAV:  cpu time    1.0557: real time    1.0563
       DOS:  cpu time    0.0003: real time    0.0003
    CHARGE:  cpu time    0.0410: real time    0.0410
    MIXING:  cpu time    0.0026: real time    0.0026
    --------------------------------------------
      LOOP:  cpu time    1.1557: real time    1.1562

 eigenvalue-minimisations  :   752
 total energy-change (2. order) : 0.3278453E+03  (-0.2814317E+03)
 number of electron      37.0000001 magnetization 
 augmentation part       -0.4011550 magnetization 

 DIPCOR: dipole corrections for dipol
 direction  3 min pos   146,
 dipolmoment           0.000000      0.000000    -12.991813 electrons x Angstroem
 Tr[quadrupol]      -261.590380

 energy correction for charged system         0.000000 eV
 dipol+quadrupol energy correction          -21.783102 eV
 added-field ion interaction       1019.272361 eV  (added to PSCEN)


 Broyden mixing:
  rms(total) = 0.20483E+01    rms(broyden)= 0.20483E+01
  rms(prec ) = 0.40688E+01
  weight for this iteration     100.00

 eigenvalues of (default mixing * dielectric matrix)
  average eigenvalue GAMMA=   0.1473
  0.7198  0.2101  0.0870  0.0557  0.0461  0.0276  0.0240  0.0079

 Free energy of the ion-electron system (eV)
  ---------------------------------------------------
  alpha Z        PSCENC =       996.90875837
  Ewald energy   TEWEN  =      3777.99846526
  -Hartree energ DENC   =     -4333.88776881
  -exchange      EXHF   =         0.00000000
  -V(xc)+E(xc)   XCENC  =      -315.01746301
  PAW double counting   =      1248.79563387     -865.39578848
  entropy T*S    EENTRO =        -0.00806576
  eigenvalues    EBANDS =     -1272.60942809
  atomic energy  EATOM  =       654.89726341
  Solvation  Ediel_sol  =         0.00000000
  ---------------------------------------------------
  free energy    TOTEN  =      -108.31839325 eV

  energy without entropy =     -108.31032749  energy(sigma->0) =     -108.31570466


--------------------------------------------------------------------------------------------------------




--------------------------------------- Iteration      1(  14)  ---------------------------------------


    POTLOK:  cpu time    0.0500: real time    0.0500
    SETDIJ:  cpu time    0.0032: real time    0.0032
     EDDAV:  cpu time    1.0732: real time    1.0737
       DOS:  cpu time    0.0003: real time    0.0003
    CHARGE:  cpu time    0.0390: real time    0.0390
    MIXING:  cpu time    0.0026: real time    0.0026
    --------------------------------------------
      LOOP:  cpu time    1.1682: real time    1.1688

 eigenvalue-minimisations  :   712
 total energy-change (2. order) :-0.1104181E+04  (-0.9307330E+03)
 number of electron      36.9999996 magnetization 
 augmentation part       -0.4253217 magnetization 

 DIPCOR: dipole corrections for dipol
 direction  3 min pos    83,
 dipolmoment           0.000000      0.000000     73.492973 electrons x Angstroem
 Tr[quadrupol]      -559.096161

 energy correction for charged system         0.000000 eV
 dipol+quadrupol energy correction         -697.062646 eV
 added-field ion interaction       6502.295152 eV  (added to PSCEN)


 Broyden mixing:
  rms(total) = 0.45802E+01    rms(broyden)= 0.45801E+01
  rms(prec ) = 0.62790E+01
  weight for this iteration     100.00

 eigenvalues of (default mixing * dielectric matrix)
  average eigenvalue GAMMA=   0.1362
  0.7363  0.1933  0.0563  0.0563  0.0613  0.0613  0.0282  0.0249  0.0079

 Free energy of the ion-electron system (eV)
  ---------------------------------------------------
  alpha Z        PSCENC =      5804.65200558
  Ewald energy   TEWEN  =      3777.99846526
  -Hartree energ DENC   =     -4333.92573164
  -exchange      EXHF   =         0.00000000
  -V(xc)+E(xc)   XCENC  =      -314.94580633
  PAW double counting   =      1326.25653696     -942.84319044
  entropy T*S    EENTRO =        -0.00876697
  eigenvalues    EBANDS =     -7184.57985769
  atomic energy  EATOM  =       654.89726341
  Solvation  Ediel_sol  =         0.00000000
  ---------------------------------------------------
  free energy    TOTEN  =     -1212.49908185 eV

  energy without entropy =    -1212.49031488  energy(sigma->0) =    -1212.49615952


--------------------------------------------------------------------------------------------------------




--------------------------------------- Iteration      1(  15)  ---------------------------------------


    POTLOK:  cpu time    0.0513: real time    0.0513
    SETDIJ:  cpu time    0.0031: real time    0.0031
     EDDAV:  cpu time    1.0624: real time    1.0629
       DOS:  cpu time    0.0003: real time    0.0003
    CHARGE:  cpu time    0.0405: real time    0.0409
    MIXING:  cpu time    0.0027: real time    0.0027
    --------------------------------------------
      LOOP:  cpu time    1.1603: real time    1.1613

 eigenvalue-minimisations  :   736
 total energy-change (2. order) : 0.1113840E+04  (-0.2790279E+03)
 number of electron      37.0000002 magnetization 
 augmentation part       -0.3749211 magnetization 

 DIPCOR: dipole corrections for dipol
 direction  3 min pos   146,
 dipolmoment           0.000000      0.000000    -11.980944 electrons x Angstroem
 Tr[quadrupol]      -255.727154

 energy correction for charged system         0.000000 eV
 dipol+quadrupol energy correction          -18.525171 eV
 added-field ion interaction        939.964604 eV  (added to PSCEN)


 Broyden mixing:
  rms(total) = 0.22009E+01    rms(broyden)= 0.22008E+01
  rms(prec ) = 0.41301E+01
  weight for this iteration     100.00

 eigenvalues of (default mixing * dielectric matrix)
  average eigenvalue GAMMA=   0.1583
  0.8403  0.1991  0.1991  0.0614  0.0614  0.0806  0.0806  0.0280  0.0246  0.0079

 Free energy of the ion-electron system (eV)
  ---------------------------------------------------
  alpha Z        PSCENC =       920.85893220
  Ewald energy   TEWEN  =      3777.99846526
  -Hartree energ DENC   =     -4333.61650716
  -exchange      EXHF   =         0.00000000
  -V(xc)+E(xc)   XCENC  =      -314.92149949
  PAW double counting   =      1336.76712106     -953.33682824
  entropy T*S    EENTRO =        -0.01995724
  eigenvalues    EBANDS =     -1187.28562856
  atomic energy  EATOM  =       654.89726341
  Solvation  Ediel_sol  =         0.00000000
  ---------------------------------------------------
  free energy    TOTEN  =       -98.65863876 eV

  energy without entropy =      -98.63868152  energy(sigma->0) =      -98.65198635


--------------------------------------------------------------------------------------------------------




--------------------------------------- Iteration      1(  16)  ---------------------------------------


    POTLOK:  cpu time    0.0547: real time    0.0547
    SETDIJ:  cpu time    0.0035: real time    0.0035
     EDDAV:  cpu time    0.9748: real time    0.9753
       DOS:  cpu time    0.0004: real time    0.0004
    CHARGE:  cpu time    0.0466: real time    0.0466
    MIXING:  cpu time    0.0028: real time    0.0028
    --------------------------------------------
      LOOP:  cpu time    1.0827: real time    1.0832

 eigenvalue-minimisations  :   608
 total energy-change (2. order) : 0.5967432E+02  (-0.4781682E+02)
 number of electron      37.0000002 magnetization 
 augmentation part       -0.4412689 magnetization 

 DIPCOR: dipole corrections for dipol
 direction  3 min pos   176,
 dipolmoment           0.000000      0.000000      0.197202 electrons x Angstroem
 Tr[quadrupol]      -176.300790

 energy correction for charged system         0.000000 eV
 dipol+quadrupol energy correction           -0.005019 eV
 added-field ion interaction         -9.016775 eV  (added to PSCEN)


 Broyden mixing:
  rms(total) = 0.49485E+00    rms(broyden)= 0.49478E+00
  rms(prec ) = 0.61775E+00
  weight for this iteration     100.00

 eigenvalues of (default mixing * dielectric matrix)
  average eigenvalue GAMMA=   0.2870
  1.9397  0.4469  0.2081  0.2081  0.1080  0.0620  0.0620  0.0618  0.0280  0.0246
  0.0079

 Free energy of the ion-electron system (eV)
  ---------------------------------------------------
  alpha Z        PSCENC =        -9.60229430
  Ewald energy   TEWEN  =      3777.99846526
  -Hartree energ DENC   =     -4333.64843079
  -exchange      EXHF   =         0.00000000
  -V(xc)+E(xc)   XCENC  =      -314.88753752
  PAW double counting   =      1376.40801101     -992.98409993
  entropy T*S    EENTRO =         0.00398123
  eigenvalues    EBANDS =      -197.16968003
  atomic energy  EATOM  =       654.89726341
  Solvation  Ediel_sol  =         0.00000000
  ---------------------------------------------------
  free energy    TOTEN  =       -38.98432167 eV

  energy without entropy =      -38.98830289  energy(sigma->0) =      -38.98564874


--------------------------------------------------------------------------------------------------------




--------------------------------------- Iteration      1(  17)  ---------------------------------------


    POTLOK:  cpu time    0.0499: real time    0.0499
    SETDIJ:  cpu time    0.0031: real time    0.0031
     EDDAV:  cpu time    0.8007: real time    0.8011
       DOS:  cpu time    0.0003: real time    0.0003
    CHARGE:  cpu time    0.0473: real time    0.0473
    MIXING:  cpu time    0.0034: real time    0.0034
    --------------------------------------------
      LOOP:  cpu time    0.9048: real time    0.9052

 eigenvalue-minimisations  :   512
 total energy-change (2. order) :-0.7226439E+01  (-0.6765058E+01)
 number of electron      37.0000002 magnetization 
 augmentation part       -0.4795856 magnetization 

 DIPCOR: dipole corrections for dipol
 direction  3 min pos   191,
 dipolmoment           0.000000      0.000000      0.350136 electrons x Angstroem
 Tr[quadrupol]      -177.801728

 energy correction for charged system         0.000000 eV
 dipol+quadrupol energy correction           -0.015822 eV
 added-field ion interaction        -10.279258 eV  (added to PSCEN)


 Broyden mixing:
  rms(total) = 0.36803E+00    rms(broyden)= 0.36800E+00
  rms(prec ) = 0.73797E+00
  weight for this iteration     100.00

 eigenvalues of (default mixing * dielectric matrix)
  average eigenvalue GAMMA=   0.3355
  2.2122  0.5182  0.5182  0.2122  0.2122  0.1068  0.0621  0.0621  0.0621  0.0280
  0.0246  0.0079

 Free energy of the ion-electron system (eV)
  ---------------------------------------------------
  alpha Z        PSCENC =       -10.87558108
  Ewald energy   TEWEN  =      3777.99846526
  -Hartree energ DENC   =     -4346.03284145
  -exchange      EXHF   =         0.00000000
  -V(xc)+E(xc)   XCENC  =      -314.39941554
  PAW double counting   =      1686.67596325    -1303.26044412
  entropy T*S    EENTRO =        -0.00739476
  eigenvalues    EBANDS =      -191.20677603
  atomic energy  EATOM  =       654.89726341
  Solvation  Ediel_sol  =         0.00000000
  ---------------------------------------------------
  free energy    TOTEN  =       -46.21076105 eV

  energy without entropy =      -46.20336629  energy(sigma->0) =      -46.20829613


--------------------------------------------------------------------------------------------------------




--------------------------------------- Iteration      1(  18)  ---------------------------------------


    POTLOK:  cpu time    0.0521: real time    0.0521
    SETDIJ:  cpu time    0.0032: real time    0.0032
     EDDAV:  cpu time    0.8526: real time    0.8533
       DOS:  cpu time    0.0003: real time    0.0003
    CHARGE:  cpu time    0.0472: real time    0.0472
    MIXING:  cpu time    0.0031: real time    0.0031
    --------------------------------------------
      LOOP:  cpu time    0.9585: real time    0.9591

 eigenvalue-minimisations  :   568
 total energy-change (2. order) :-0.4203857E+00  (-0.2565645E+00)
 number of electron      37.0000002 magnetization 
 augmentation part       -0.4762519 magnetization 

 DIPCOR: dipole corrections for dipol
 direction  3 min pos   198,
 dipolmoment           0.000000      0.000000      0.356142 electrons x Angstroem
 Tr[quadrupol]      -178.775458

 energy correction for charged system         0.000000 eV
 dipol+quadrupol energy correction           -0.016369 eV
 added-field ion interaction         -7.735612 eV  (added to PSCEN)


 Broyden mixing:
  rms(total) = 0.35345E+00    rms(broyden)= 0.35345E+00
  rms(prec ) = 0.78121E+00
  weight for this iteration     100.00

 eigenvalues of (default mixing * dielectric matrix)
  average eigenvalue GAMMA=   0.3814
  2.1937  0.7427  0.7427  0.5023  0.2114  0.2114  0.1069  0.0621  0.0621  0.0621
  0.0280  0.0246  0.0079

 Free energy of the ion-electron system (eV)
  ---------------------------------------------------
  alpha Z        PSCENC =        -8.33248218
  Ewald energy   TEWEN  =      3777.99846526
  -Hartree energ DENC   =     -4351.82155626
  -exchange      EXHF   =         0.00000000
  -V(xc)+E(xc)   XCENC  =      -314.23525288
  PAW double counting   =      1728.45330412    -1345.06001901
  entropy T*S    EENTRO =        -0.00758417
  eigenvalues    EBANDS =      -188.52328506
  atomic energy  EATOM  =       654.89726341
  Solvation  Ediel_sol  =         0.00000000
  ---------------------------------------------------
  free energy    TOTEN  =       -46.63114677 eV

  energy without entropy =      -46.62356260  energy(sigma->0) =      -46.62861871


--------------------------------------------------------------------------------------------------------




--------------------------------------- Iteration      1(  19)  ---------------------------------------


    POTLOK:  cpu time    0.0499: real time    0.0499
    SETDIJ:  cpu time    0.0032: real time    0.0032
     EDDAV:  cpu time    0.9023: real time    0.9027
       DOS:  cpu time    0.0003: real time    0.0003
    CHARGE:  cpu time    0.0480: real time    0.0480
    MIXING:  cpu time    0.0033: real time    0.0033
    --------------------------------------------
      LOOP:  cpu time    1.0069: real time    1.0074

 eigenvalue-minimisations  :   608
 total energy-change (2. order) :-0.3472803E-01  (-0.1500388E-01)
 number of electron      37.0000002 magnetization 
 augmentation part       -0.4746844 magnetization 

 DIPCOR: dipole corrections for dipol
 direction  3 min pos   202,
 dipolmoment           0.000000      0.000000      0.334410 electrons x Angstroem
 Tr[quadrupol]      -179.345084

 energy correction for charged system         0.000000 eV
 dipol+quadrupol energy correction           -0.014432 eV
 added-field ion interaction         -5.804156 eV  (added to PSCEN)


 Broyden mixing:
  rms(total) = 0.34022E+00    rms(broyden)= 0.34022E+00
  rms(prec ) = 0.78324E+00
  weight for this iteration     100.00

 eigenvalues of (default mixing * dielectric matrix)
  average eigenvalue GAMMA=   0.4804
  2.3204  1.2126  1.2126  0.6020  0.6020  0.2114  0.2114  0.1069  0.0621  0.0621
  0.0621  0.0280  0.0246  0.0079

 Free energy of the ion-electron system (eV)
  ---------------------------------------------------
  alpha Z        PSCENC =        -6.39908886
  Ewald energy   TEWEN  =      3777.99846526
  -Hartree energ DENC   =     -4354.24551869
  -exchange      EXHF   =         0.00000000
  -V(xc)+E(xc)   XCENC  =      -314.18921892
  PAW double counting   =      1669.85832114    -1286.47794001
  entropy T*S    EENTRO =        -0.00783884
  eigenvalues    EBANDS =      -188.10031929
  atomic energy  EATOM  =       654.89726341
  Solvation  Ediel_sol  =         0.00000000
  ---------------------------------------------------
  free energy    TOTEN  =       -46.66587479 eV

  energy without entropy =      -46.65803596  energy(sigma->0) =      -46.66326185


--------------------------------------------------------------------------------------------------------




--------------------------------------- Iteration      1(  20)  ---------------------------------------


    POTLOK:  cpu time    0.0509: real time    0.0509
    SETDIJ:  cpu time    0.0033: real time    0.0032
     EDDAV:  cpu time    0.7629: real time    0.7635
       DOS:  cpu time    0.0004: real time    0.0004
    CHARGE:  cpu time    0.0473: real time    0.0473
    MIXING:  cpu time    0.0035: real time    0.0035
    --------------------------------------------
      LOOP:  cpu time    0.8683: real time    0.8688

 eigenvalue-minimisations  :   488
 total energy-change (2. order) :-0.1397743E+03  (-0.1312691E+02)
 number of electron      36.9999997 magnetization 
 augmentation part       -0.4653893 magnetization 

 DIPCOR: dipole corrections for dipol
 direction  3 min pos   109,
 dipolmoment           0.000000      0.000000     -1.852238 electrons x Angstroem
 Tr[quadrupol]      -731.623401

 energy correction for charged system         0.000000 eV
 dipol+quadrupol energy correction           -0.442766 eV
 added-field ion interaction        -74.849055 eV  (added to PSCEN)


 Broyden mixing:
  rms(total) = 0.18101E+01    rms(broyden)= 0.18101E+01
  rms(prec ) = 0.44731E+01
  weight for this iteration     100.00

 eigenvalues of (default mixing * dielectric matrix)
  average eigenvalue GAMMA=   0.4484
  2.3628  1.1873  1.1873  0.5980  0.5980  0.2113  0.2113  0.1069  0.0621  0.0621
  0.0621  0.0280  0.0246  0.0079  0.0168

 Free energy of the ion-electron system (eV)
  ---------------------------------------------------
  alpha Z        PSCENC =       -75.87232152
  Ewald energy   TEWEN  =      3777.99846526
  -Hartree energ DENC   =     -4356.41184188
  -exchange      EXHF   =         0.00000000
  -V(xc)+E(xc)   XCENC  =      -314.14143812
  PAW double counting   =      1591.33507474    -1207.96413379
  entropy T*S    EENTRO =        -0.00841510
  eigenvalues    EBANDS =      -256.27278191
  atomic energy  EATOM  =       654.89726341
  Solvation  Ediel_sol  =         0.00000000
  ---------------------------------------------------
  free energy    TOTEN  =      -186.44012892 eV

  energy without entropy =     -186.43171382  energy(sigma->0) =     -186.43732389


--------------------------------------------------------------------------------------------------------




--------------------------------------- Iteration      1(  21)  ---------------------------------------


    POTLOK:  cpu time    0.0524: real time    0.0524
    SETDIJ:  cpu time    0.0032: real time    0.0032
     EDDAV:  cpu time    0.7264: real time    0.7269
       DOS:  cpu time    0.0003: real time    0.0003
    CHARGE:  cpu time    0.0488: real time    0.0488
    MIXING:  cpu time    0.0036: real time    0.0036
    --------------------------------------------
      LOOP:  cpu time    0.8347: real time    0.8351

 eigenvalue-minimisations  :   456
 total energy-change (2. order) : 0.1379341E+03  (-0.1543928E+02)
 number of electron      37.0000000 magnetization 
 augmentation part       -0.4799196 magnetization 

 DIPCOR: dipole corrections for dipol
 direction  3 min pos    63,
 dipolmoment           0.000000      0.000000      1.278359 electrons x Angstroem
 Tr[quadrupol]      -188.003716

 energy correction for charged system         0.000000 eV
 dipol+quadrupol energy correction           -0.210904 eV
 added-field ion interaction         85.207919 eV  (added to PSCEN)


 Broyden mixing:
  rms(total) = 0.51624E+00    rms(broyden)= 0.51621E+00
  rms(prec ) = 0.12749E+01
  weight for this iteration     100.00

 eigenvalues of (default mixing * dielectric matrix)
  average eigenvalue GAMMA=   0.4231
  2.3771  1.1719  1.1719  0.5968  0.5968  0.2113  0.2113  0.1069  0.0621  0.0621
  0.0621  0.0280  0.0246  0.0079  0.0781  0.0012

 Free energy of the ion-electron system (eV)
  ---------------------------------------------------
  alpha Z        PSCENC =        84.41651348
  Ewald energy   TEWEN  =      3777.99846526
  -Hartree energ DENC   =     -4356.37616314
  -exchange      EXHF   =         0.00000000
  -V(xc)+E(xc)   XCENC  =      -314.13971227
  PAW double counting   =      1590.01837106    -1206.64748255
  entropy T*S    EENTRO =         0.00174394
  eigenvalues    EBANDS =      -278.67507344
  atomic energy  EATOM  =       654.89726341
  Solvation  Ediel_sol  =         0.00000000
  ---------------------------------------------------
  free energy    TOTEN  =       -48.50607423 eV

  energy without entropy =      -48.50781818  energy(sigma->0) =      -48.50665555


--------------------------------------------------------------------------------------------------------




--------------------------------------- Iteration      1(  22)  ---------------------------------------


    POTLOK:  cpu time    0.0510: real time    0.0510
    SETDIJ:  cpu time    0.0032: real time    0.0032
     EDDAV:  cpu time    0.7609: real time    0.7614
       DOS:  cpu time    0.0003: real time    0.0003
    CHARGE:  cpu time    0.0478: real time    0.0478
    MIXING:  cpu time    0.0038: real time    0.0038
    --------------------------------------------
      LOOP:  cpu time    0.8670: real time    0.8676

 eigenvalue-minimisations  :   472
 total energy-change (2. order) : 0.2393845E+01  (-0.1572580E+01)
 number of electron      37.0000001 magnetization 
 augmentation part       -0.4896027 magnetization 

 DIPCOR: dipole corrections for dipol
 direction  3 min pos    40,
 dipolmoment           0.000000      0.000000      0.116727 electrons x Angstroem
 Tr[quadrupol]      -181.961287

 energy correction for charged system         0.000000 eV
 dipol+quadrupol energy correction           -0.001758 eV
 added-field ion interaction          4.851167 eV  (added to PSCEN)


 Broyden mixing:
  rms(total) = 0.31876E+00    rms(broyden)= 0.31873E+00
  rms(prec ) = 0.69489E+00
  weight for this iteration     100.00

 eigenvalues of (default mixing * dielectric matrix)
  average eigenvalue GAMMA=   0.4108
  2.3896  1.1791  1.1791  0.5994  0.5994  0.2113  0.2113  0.1992  0.0621  0.0621
  0.1069  0.0079  0.0280  0.0246  0.0621  0.0605  0.0017

 Free energy of the ion-electron system (eV)
  ---------------------------------------------------
  alpha Z        PSCENC =         4.26890792
  Ewald energy   TEWEN  =      3777.99846526
  -Hartree energ DENC   =     -4355.97574012
  -exchange      EXHF   =         0.00000000
  -V(xc)+E(xc)   XCENC  =      -314.15071560
  PAW double counting   =      1574.52488457    -1191.15286430
  entropy T*S    EENTRO =        -0.00928686
  eigenvalues    EBANDS =      -196.51314359
  atomic energy  EATOM  =       654.89726341
  Solvation  Ediel_sol  =         0.00000000
  ---------------------------------------------------
  free energy    TOTEN  =       -46.11222929 eV

  energy without entropy =      -46.10294244  energy(sigma->0) =      -46.10913367


--------------------------------------------------------------------------------------------------------




--------------------------------------- Iteration      1(  23)  ---------------------------------------


    POTLOK:  cpu time    0.0520: real time    0.0521
    SETDIJ:  cpu time    0.0036: real time    0.0036
     EDDAV:  cpu time    0.8051: real time    0.8056
       DOS:  cpu time    0.0003: real time    0.0003
    CHARGE:  cpu time    0.0484: real time    0.0484
[...]
  rms(prec ) = 0.13106E-02
  weight for this iteration     100.00

 eigenvalues of (default mixing * dielectric matrix)
  average eigenvalue GAMMA=   1.2816
  2.4728  1.2257  1.0883  0.3397

 Free energy of the ion-electron system (eV)
  ---------------------------------------------------
  alpha Z        PSCENC =        -0.72769581
  Ewald energy   TEWEN  =      3822.08590971
  -Hartree energ DENC   =     -4419.61755561
  -exchange      EXHF   =         0.00000000
  -V(xc)+E(xc)   XCENC  =      -313.58261943
  PAW double counting   =      1662.08033207    -1278.77314583
  entropy T*S    EENTRO =         0.00047478
  eigenvalues    EBANDS =      -171.50752820
  atomic energy  EATOM  =       654.89726341
  Solvation  Ediel_sol  =         0.00000000
  ---------------------------------------------------
  free energy    TOTEN  =       -45.14456491 eV

  energy without entropy =      -45.14503969  energy(sigma->0) =      -45.14472317


--------------------------------------------------------------------------------------------------------




--------------------------------------- Iteration      5(   6)  ---------------------------------------


    POTLOK:  cpu time    0.0516: real time    0.0516
    SETDIJ:  cpu time    0.0033: real time    0.0033
     EDDAV:  cpu time    0.6243: real time    0.6244
       DOS:  cpu time    0.0003: real time    0.0003
    --------------------------------------------
      LOOP:  cpu time    0.6795: real time    0.6795

 eigenvalue-minimisations  :   360
 total energy-change (2. order) :-0.3021386E-04  (-0.8101798E-05)
 number of electron      37.0000005 magnetization 
 augmentation part       -0.4744270 magnetization 

 DIPCOR: dipole corrections for dipol
 direction  3 min pos    11,
 dipolmoment           0.000000      0.000000     -0.014726 electrons x Angstroem
 Tr[quadrupol]      -182.808241

 energy correction for charged system         0.000000 eV
 dipol+quadrupol energy correction           -0.000028 eV
 added-field ion interaction         -0.148261 eV  (added to PSCEN)


 Free energy of the ion-electron system (eV)
  ---------------------------------------------------
  alpha Z        PSCENC =        -0.72878946
  Ewald energy   TEWEN  =      3822.08590971
  -Hartree energ DENC   =     -4419.68164184
  -exchange      EXHF   =         0.00000000
  -V(xc)+E(xc)   XCENC  =      -313.58192479
  PAW double counting   =      1661.91091775    -1278.60350953
  entropy T*S    EENTRO =         0.00048545
  eigenvalues    EBANDS =      -171.44330583
  atomic energy  EATOM  =       654.89726341
  Solvation  Ediel_sol  =         0.00000000
  ---------------------------------------------------
  free energy    TOTEN  =       -45.14459512 eV

  energy without entropy =      -45.14508057  energy(sigma->0) =      -45.14475694


--------------------------------------------------------------------------------------------------------




 average (electrostatic) potential at core
  the test charge radii are     1.0406  0.5201
  (the norm of the test charge is              1.0000)
       1 -81.1122       2 -81.0768       3 -81.0768       4 -81.0768       5 -81.0461
       6 -81.0461       7 -80.9724       8 -81.0461       9 -81.2293      10 -81.2293
      11 -81.2293      12 -81.0306      13 -38.0399
 
 
 
 E-fermi :  -0.4500     XC(G=0):  -3.7082     alpha+bet : -4.2449


 k-point     1 :       0.1250    0.1250    0.0000
  band No.  band energies     occupation 
      1     -10.9374      2.00000
      2      -9.5278      2.00000
      3      -7.4544      2.00000
      4      -6.4323      2.00000
      5      -5.8555      2.00000
      6      -5.6986      2.00000
      7      -5.2836      2.00000
      8      -4.6020      2.00000
      9      -4.2838      2.00000
     10      -4.2322      2.00000
     11      -4.1252      2.00000
     12      -3.8424      2.00000
     13      -3.5789      2.00000
     14      -3.0466      2.00000
     15      -2.6202      2.00000
     16      -2.4172      2.00000
     17      -1.8122      2.00000
     18      -1.6306      2.00000
     19      -1.4629      2.00000
     20      -0.5200      1.91934
     21      -0.0981     -0.00001
     22      -0.0441     -0.00000
     23       0.4645     -0.00000
     24       0.6103     -0.00000
     25       1.2679     -0.00000
     26       1.4592     -0.00000
     27       2.4222      0.00000
     28       2.5356      0.00000
     29       2.7984      0.00000
     30       3.2135      0.00000
     31       3.3825      0.00000
     32       3.8871      0.00000

 k-point     2 :       0.3750    0.1250    0.0000
  band No.  band energies     occupation 
      1     -10.3916      2.00000
      2      -9.0781      2.00000
      3      -8.1376      2.00000
      4      -7.5002      2.00000
      5      -7.0335      2.00000
      6      -6.2758      2.00000
      7      -5.7766      2.00000
      8      -5.2048      2.00000
      9      -4.5972      2.00000
     10      -3.7651      2.00000
     11      -3.6592      2.00000
     12      -3.4356      2.00000
     13      -3.0613      2.00000
     14      -2.3003      2.00000
     15      -1.6943      2.00000
     16      -1.3619      2.00000
     17      -0.9874      2.00000
     18      -0.7115      2.00137
     19      -0.3880      0.14205
     20       0.0292     -0.00000
     21       0.1122     -0.00000
     22       0.3950     -0.00000
     23       0.6745     -0.00000
     24       0.8520     -0.00000
     25       1.6930     -0.00000
     26       2.1419     -0.00000
     27       2.2687      0.00000
     28       2.5748      0.00000
     29       2.7062      0.00000
     30       2.9642      0.00000
     31       3.0219      0.00000
     32       3.3287      0.00000

 k-point     3 :      -0.3750    0.1250    0.0000
  band No.  band energies     occupation 
      1      -9.8707      2.00000
      2      -9.1430      2.00000
      3      -8.5335      2.00000
      4      -7.6769      2.00000
      5      -7.4459      2.00000
      6      -6.4728      2.00000
      7      -5.7395      2.00000
      8      -5.3450      2.00000
      9      -5.0064      2.00000
     10      -4.0081      2.00000
     11      -3.5979      2.00000
     12      -2.8382      2.00000
     13      -2.5293      2.00000
     14      -2.0167      2.00000
     15      -1.5205      2.00000
     16      -1.1807      2.00000
     17      -0.7449      2.00025
     18      -0.6206      2.03656
     19      -0.1880     -0.00133
     20       0.5203     -0.00000
     21       0.7377     -0.00000
     22       0.9600     -0.00000
     23       1.0312     -0.00000
     24       1.1655     -0.00000
     25       1.6338     -0.00000
     26       1.7342     -0.00000
     27       1.8822     -0.00000
     28       2.4782      0.00000
     29       2.6456      0.00000
     30       2.9923      0.00000
     31       3.1041      0.00000
     32       3.4008      0.00000

 k-point     4 :      -0.1250    0.1250    0.0000
  band No.  band energies     occupation 
      1     -10.7542      2.00000
      2      -9.3662      2.00000
      3      -7.5257      2.00000
      4      -6.9497      2.00000
      5      -6.8061      2.00000
      6      -5.7655      2.00000
      7      -5.3228      2.00000
      8      -4.8958      2.00000
      9      -4.7953      2.00000
     10      -4.2961      2.00000
     11      -3.4443      2.00000
     12      -3.1648      2.00000
     13      -3.0208      2.00000
     14      -2.9380      2.00000
     15      -2.5927      2.00000
     16      -2.4036      2.00000
     17      -1.3706      2.00000
     18      -0.9790      2.00000
     19      -0.8750      2.00000
     20      -0.5436      2.03429
     21      -0.1898     -0.00145
     22       0.1863     -0.00000
     23       0.2591     -0.00000
     24       1.0876     -0.00000
     25       1.5504     -0.00000
     26       1.9422     -0.00000
     27       2.2810      0.00000
     28       2.5102      0.00000
     29       2.6104      0.00000
     30       3.3469      0.00000
     31       3.4342      0.00000
     32       3.5718      0.00000

 k-point     5 :       0.3750    0.3750    0.0000
  band No.  band energies     occupation 
      1     -10.2137      2.00000
      2      -9.0204      2.00000
      3      -8.5551      2.00000
      4      -7.4560      2.00000
      5      -6.6125      2.00000
      6      -6.4203      2.00000
      7      -6.2224      2.00000
      8      -5.2348      2.00000
      9      -4.8209      2.00000
     10      -4.5527      2.00000
     11      -3.4619      2.00000
     12      -2.5999      2.00000
     13      -2.5187      2.00000
     14      -2.1616      2.00000
     15      -1.8891      2.00000
     16      -1.5412      2.00000
     17      -0.6907      2.00348
     18      -0.4953      1.68656
     19      -0.0501     -0.00000
     20       0.1805     -0.00000
     21       0.4848     -0.00000
     22       0.5843     -0.00000
     23       0.8664     -0.00000
     24       0.9163     -0.00000
     25       1.4434     -0.00000
     26       1.7174     -0.00000
     27       1.9143     -0.00000
     28       2.2199      0.00000
     29       2.4926      0.00000
     30       2.5915      0.00000
     31       3.1081      0.00000
     32       3.7294      0.00000

 k-point     6 :      -0.3750    0.3750    0.0000
  band No.  band energies     occupation 
      1      -9.4983      2.00000
      2      -9.1538      2.00000
      3      -8.6066      2.00000
      4      -8.1305      2.00000
      5      -7.5017      2.00000
      6      -6.9632      2.00000
      7      -5.8777      2.00000
      8      -4.9249      2.00000
      9      -4.4117      2.00000
     10      -4.0995      2.00000
     11      -3.0802      2.00000
     12      -2.6802      2.00000
     13      -2.6686      2.00000
     14      -2.4352      2.00000
     15      -1.8847      2.00000
     16      -1.4811      2.00000
     17      -1.2213      2.00000
     18      -0.9969      2.00000
     19       0.2470     -0.00000
     20       0.8743     -0.00000
     21       1.3918     -0.00000
     22       1.4095     -0.00000
     23       1.4524     -0.00000
     24       1.5297     -0.00000
     25       1.7557     -0.00000
     26       2.3722      0.00000
     27       2.4012      0.00000
     28       2.5150      0.00000
     29       2.6331      0.00000
     30       2.9397      0.00000
     31       3.4130      0.00000
     32       3.6010      0.00000


--------------------------------------------------------------------------------------------------------


 soft charge-density along one line, spin component            1
         0         1         2         3         4         5         6         7         8         9
 total charge-density along one line
 
 pseudopotential strength for first ion, spin component:            1
  8.731  14.895   0.000  -0.002   0.000   0.000  -0.006   0.000
 14.895  25.409   0.000  -0.004   0.000   0.000  -0.011   0.000
  0.000   0.000   1.975  -0.000   0.000   5.752  -0.000   0.000
 -0.002  -0.004  -0.000   1.976  -0.000  -0.000   5.755  -0.000
  0.000   0.000   0.000  -0.000   1.975   0.000  -0.000   5.752
  0.000   0.000   5.752  -0.000   0.000  16.638  -0.000   0.000
 -0.006  -0.011  -0.000   5.755  -0.000  -0.000  16.645  -0.000
  0.000   0.000   0.000  -0.000   5.752   0.000  -0.000  16.638
 total augmentation occupancy for first ion, spin component:            1
  3.094  -0.680   0.000   0.206   0.000  -0.000  -0.034   0.000
 -0.680   0.224   0.000  -0.122   0.000   0.000   0.013  -0.000
 -0.000  -0.000   1.132   0.000  -0.000  -0.081   0.000  -0.000
  0.206  -0.122   0.000   0.846   0.000   0.000  -0.057   0.000
  0.000   0.000   0.000   0.000   1.132  -0.000   0.000  -0.081
 -0.000   0.000  -0.081   0.000  -0.000   0.006   0.000   0.000
 -0.034   0.013   0.000  -0.057   0.000  -0.000   0.004   0.000
  0.000   0.000  -0.000   0.000  -0.081   0.000  -0.000   0.006


------------------------ aborting loop because EDIFF is reached ----------------------------------------


    CHARGE:  cpu time    0.0478: real time    0.0482
    FORLOC:  cpu time    0.0101: real time    0.0101
    FORNL :  cpu time    0.5106: real time    0.5107
    STRESS:  cpu time    1.0549: real time    1.0554
    FORCOR:  cpu time    0.0551: real time    0.0551
    FORHAR:  cpu time    0.0188: real time    0.0188
    MIXING:  cpu time    0.0023: real time    0.0023
    OFIELD:  cpu time    0.0000: real time    0.0000

  FORCE on cell =-STRESS in cart. coord.  units (eV):
  Direction    XX          YY          ZZ          XY          YZ          ZX
  --------------------------------------------------------------------------------------
  Alpha Z    -0.58050    -0.58050    -0.58050
  Ewald    4412.37117  4412.37117 -5002.65714     0.00000     0.00000     0.00000
  Hartree  4415.63361  4415.63361 -4411.17494     0.00000    -0.00000    -0.00000
  E(xc)    -103.10137  -103.10165  -103.76943     0.00024     0.00001     0.00002
  Local   -9122.43673 -9122.43667  9122.75614    -0.00005     0.00002     0.00003
  n-local   229.15521   228.01838   222.17054    -0.41455     0.95939     0.01789
  augment   -13.13133   -13.13132   -12.77194    -0.00001     0.00000     0.00000
  Kinetic   173.06951   185.42396   184.25843     2.25848    -0.29670     0.18518
  Fock        0.00000     0.00000     0.00000     0.00000     0.00000     0.00000
  -------------------------------------------------------------------------------------
  Total      -3.41173    -3.41173    -1.76884    -0.00000     0.00000    -0.00000
  in kB      -7.79706    -7.79706    -4.04244    -0.00000     0.00000    -0.00000
  external pressure =       -6.55 kB  Pullay stress =        0.00 kB


 VOLUME and BASIS-vectors are now :
 -----------------------------------------------------------------------------
  energy-cutoff  :      300.00
  volume of cell :      701.06
      direct lattice vectors                 reciprocal lattice vectors
     5.727564928  0.000000000  0.000000000     0.174594267 -0.100802047  0.000000000
     2.863782464  4.960216729  0.000000000     0.000000000  0.201604094  0.000000000
     0.000000000  0.000000000 24.676537180     0.000000000  0.000000000  0.040524324

  length of vectors
     5.727564928  5.727564928 24.676537180     0.201604094  0.201604094  0.040524324


 FORCES acting on ions
    electron-ion (+dipol)            ewald-force                    non-local-force                 convergence-correction
 -----------------------------------------------------------------------------------------------
   0.138E-04 0.795E-05 0.170E+03   0.491E-13 0.313E-13 -.168E+03   -.147E-16 -.247E-16 -.119E+01   -.926E-10 -.535E-10 -.605E-02
   0.850E-05 0.599E-01 0.170E+03   0.500E-13 0.310E-13 -.168E+03   0.173E-17 -.946E-02 -.129E+01   0.963E-09 -.552E-03 -.554E-02
   0.518E-01 -.299E-01 0.170E+03   0.474E-13 0.313E-13 -.168E+03   -.819E-02 0.473E-02 -.129E+01   -.478E-03 0.276E-03 -.554E-02
   -.518E-01 -.299E-01 0.170E+03   0.474E-13 0.313E-13 -.168E+03   0.819E-02 0.473E-02 -.129E+01   0.478E-03 0.276E-03 -.554E-02
   0.466E+00 -.269E+00 0.695E+01   -.458E+00 0.264E+00 -.716E+01   0.173E-01 -.100E-01 0.345E+00   -.738E-03 0.426E-03 -.265E-02
   -.466E+00 -.269E+00 0.695E+01   0.458E+00 0.264E+00 -.716E+01   -.173E-01 -.100E-01 0.345E+00   0.738E-03 0.426E-03 -.265E-02
   0.238E-06 0.138E-06 0.686E+01   -.149E-12 -.827E-13 -.660E+01   0.173E-17 0.694E-17 -.444E+00   -.175E-09 -.101E-09 -.276E-02
   -.843E-06 0.538E+00 0.695E+01   -.127E-12 -.528E+00 -.716E+01   0.208E-16 0.200E-01 0.345E+00   0.726E-09 -.853E-03 -.265E-02
   0.638E+01 0.369E+01 -.157E+03   -.735E+01 -.424E+01 0.155E+03   0.531E+00 0.307E+00 0.141E+01   0.168E-02 0.968E-03 0.457E-02
   -.638E+01 0.369E+01 -.157E+03   0.735E+01 -.424E+01 0.155E+03   -.531E+00 0.307E+00 0.141E+01   -.168E-02 0.968E-03 0.457E-02
   -.476E-05 -.737E+01 -.157E+03   0.497E-12 0.848E+01 0.155E+03   -.208E-16 -.613E+00 0.141E+01   -.330E-08 -.194E-02 0.457E-02
   0.944E-06 0.545E-06 -.160E+03   -.782E-13 -.524E-13 0.159E+03   -.104E-16 -.347E-17 0.898E+00   0.261E-08 0.151E-08 0.361E-02
   0.235E-06 0.135E-06 -.747E+02   0.709E-12 0.394E-12 0.760E+02   -.173E-17 0.000E+00 -.120E+01   -.855E-08 -.494E-08 0.958E-03
 -----------------------------------------------------------------------------------------------
   0.103E-04 0.593E-05 0.553E+00   0.427E-14 0.184E-15 -.711E-13   -.330E-16 -.347E-17 -.540E+00   -.133E-07 -.768E-08 -.151E-01
 
 
 POSITION                                       TOTAL-FORCE (eV/Angst)
 -----------------------------------------------------------------------------------
      1.43189      0.82670     10.00000         0.000000      0.000000      0.100531
      4.29567      0.82670     10.00000         0.000000      0.049849      0.034878
      2.86378      3.30681     10.00000         0.043171     -0.024925      0.034878
      5.72756      3.30681     10.00000        -0.043171     -0.024925      0.034878
      5.72756      1.65341     12.33827         0.025054     -0.014465      0.137666
      2.86378      1.65341     12.33827        -0.025054     -0.014465      0.137666
      7.15946      4.13351     12.33827         0.000000     -0.000000     -0.185794
      4.29567      4.13351     12.33827         0.000000      0.028930      0.137666
      0.00000      0.00000     14.67654        -0.428511     -0.247401     -0.116994
      2.86378      0.00000     14.67654         0.428511     -0.247401     -0.116994
      1.43189      2.48011     14.67654         0.000000      0.494802     -0.116994
      4.29567      2.48011     14.67654         0.000000      0.000000     -0.105745
      1.43189      0.82670     15.60306         0.000000      0.000000      0.024357
 -----------------------------------------------------------------------------------
    total drift:                                0.000010      0.000006     -0.001368


--------------------------------------------------------------------------------------------------------



  FREE ENERGIE OF THE ION-ELECTRON SYSTEM (eV)
  ---------------------------------------------------
  free  energy   TOTEN  =       -45.14459512 eV

  energy  without entropy=      -45.14508057  energy(sigma->0) =      -45.14475694
 
 d Force = 0.1009003E-01[-0.241E-02, 0.226E-01]  d Energy = 0.1017303E-01-0.830E-04
 d Force =-0.7534138E+01[-0.750E+01,-0.757E+01]  d Ewald  =-0.7536455E+01 0.232E-02


--------------------------------------------------------------------------------------------------------


    POTLOK:  cpu time    0.0557: real time    0.0557


--------------------------------------------------------------------------------------------------------




--------------------------------------------------------------------------------------------------------


  
 reached required accuracy - stopping structural energy minimisation
     LOOP+:  cpu time    6.4682: real time    6.4809
    4ORBIT:  cpu time    0.0000: real time    0.0000

 total amount of memory used by VASP MPI-rank0    49718. kBytes
=======================================================================

   base      :      30000. kBytes
   nonl-proj :       8096. kBytes
   fftplans  :       2354. kBytes
   grid      :       6004. kBytes
   one-center:         39. kBytes
   wavefun   :       3225. kBytes
 
  
  
 General timing and accounting informations for this job:
 ========================================================
  
                  Total CPU time used (sec):       95.903
                            User time (sec):       95.753
                          System time (sec):        0.150
                         Elapsed time (sec):       96.008
  
                   Maximum memory used (kb):       79960.
                   Average memory used (kb):           0.
  
                          Minor page faults:        55200
                          Major page faults:           16
                 Voluntary context switches:          236
