unknown system                          
            1
     5.727565    0.000000    0.000000
     2.863782    4.960217    0.000000
     0.000000    0.000000   24.676537
   Al   H 
    12     1
Direct configuration=     1
   0.16666667  0.16666667  0.40524324
   0.66666667  0.16666667  0.40524324
   0.16666667  0.66666667  0.40524324
   0.66666667  0.66666667  0.40524324
   0.83333333  0.33333333  0.50000000
   0.33333333  0.33333333  0.50000000
   0.83333333  0.83333333  0.50000000
   0.33333333  0.83333333  0.50000000
   0.00000000  0.00000000  0.59475676
   0.50000000  0.00000000  0.59475676
   0.00000000  0.50000000  0.59475676
   0.50000000  0.50000000  0.59475676
   0.16666667  0.16666667  0.65554324
Direct configuration=     2
   0.16666667  0.16666667  0.40524324
   0.66666667  0.16666667  0.40524324
   0.16666667  0.66666667  0.40524324
   0.66666667  0.66666667  0.40524324
   0.83333333  0.33333333  0.50000000
   0.33333333  0.33333333  0.50000000
   0.83333333  0.83333333  0.50000000
   0.33333333  0.83333333  0.50000000
   0.00000000  0.00000000  0.59475676
   0.50000000  0.00000000  0.59475676
   0.00000000  0.50000000  0.59475676
   0.50000000  0.50000000  0.59475676
   0.16666667  0.16666667  0.65361950
Direct configuration=     3
   0.16666667  0.16666667  0.40524324
   0.66666667  0.16666667  0.40524324
   0.16666667  0.66666667  0.40524324
   0.66666667  0.66666667  0.40524324
   0.83333333  0.33333333  0.50000000
   0.33333333  0.33333333  0.50000000
   0.83333333  0.83333333  0.50000000
   0.33333333  0.83333333  0.50000000
   0.00000000  0.00000000  0.59475676
   0.50000000  0.00000000  0.59475676
   0.00000000  0.50000000  0.59475676
   0.50000000  0.50000000  0.59475676
   0.16666667  0.16666667  0.64784826
Direct configuration=     4
   0.16666667  0.16666667  0.40524324
   0.66666667  0.16666667  0.40524324
   0.16666667  0.66666667  0.40524324
   0.66666667  0.66666667  0.40524324
   0.83333333  0.33333333  0.50000000
   0.33333333  0.33333333  0.50000000
   0.83333333  0.83333333  0.50000000
   0.33333333  0.83333333  0.50000000
   0.00000000  0.00000000  0.59475676
   0.50000000  0.00000000  0.59475676
   0.00000000  0.50000000  0.59475676
   0.50000000  0.50000000  0.59475676
   0.16666667  0.16666667  0.63630579
Direct configuration=     5
   0.16666667  0.16666667  0.40524324
   0.66666667  0.16666667  0.40524324
   0.16666667  0.66666667  0.40524324
   0.66666667  0.66666667  0.40524324
   0.83333333  0.33333333  0.50000000
   0.33333333  0.33333333  0.50000000
   0.83333333  0.83333333  0.50000000
   0.33333333  0.83333333  0.50000000
   0.00000000  0.00000000  0.59475676
   0.50000000  0.00000000  0.59475676
   0.00000000  0.50000000  0.59475676
   0.50000000  0.50000000  0.59475676
   0.16666667  0.16666667  0.63230334
